Compiler and run-time data
===========================================================================
RASPA 1.8-0
Compiled as a 64-bits application
Compiler: gcc 4.2.1 (Based on Apple Inc. build 5658) (LLVM build 2336.11.00)
Compile Date = Apr 16 2013, Compile Time = 14:47:55

Tue Apr 16 14:57:14 2013
Simulation started on Tuesday, April 16.
The start time was 02:57 PM.

Cpu data:    x86_64
Cpu Model:   MacPro5,1
Host name:   server.darkwing.nl
OS release:  12.3.0
OS type:     Darwin
OS version:  12D78


Simulation
===========================================================================
Dimensions: 3
Random number seed: 1366117033
RASPA directory set to: /Users/dubbelda/RASPA/simulations/
String appended to output-files: 
Number of cycles: 1
Number of initializing cycles: 0
Number of equilibration cycles: 0
Print every: 1
Triclinic boundary condition applied
Timestep: 0.000500
Initialization Ensemble: NVT (constant number of particles N, constant volume V, constant average temperature T)
Production run ensemble: NVT (constant number of particles N, constant volume V, constant average temperature T)
	Degrees of freedom:                        432
	Translational Degrees of freedom:          432
	Rotational Degrees of freedom:             0
	Degrees of freedom Framework:              432


Mutual consistent basic set of units:
======================================
Unit of temperature: Kelvin
Unit of length:      1e-10 [m]
Unit of time:        1e-12 [s]
Unit of mass:        1.66054e-27 [kg]
Unit of charge:      1.60218e-19 [C/particle]

Derived units and their conversion factors:
===========================================
Unit of energy:              1.66054e-23 [J]
Unit of force:               1.66054e-13 [N]
Unit of pressure:            1.66054e+07 [Pa]
Unit of velocity:            100 [m/s]
Unit of acceleration:        1e-08 [m^2/s]
Unit of diffusion:           1e-08 [m^2/s]
Unit of dipole moment:       1.60218e-29 [C.m]
Unit of electric potential:  0.000103643 [V]
Unit of electric field:      1.03643e+06 [V]
Unit of polarizability:      1.54587e-35 [-]
Unit of Coulomb potential:   167101.0800066561  [K]
Unit of dielectric constant: 0.0000154587       [s^2 C^2/(kg m^3)]
Unit of wave vectors:        5.3088374589       [cm^1]
Boltzmann constant:          0.8314464919       [-]

Internal conversion factors:
===========================================
Energy to Kelvin:                                    1.2027242847
FH correction factor                                 2.0211930949
Heat capacity conversion factor:                    10.0000088723
From Debye to internal units:                        4.8032067991
Isothermal compressibility conversion factor:        0.0000000602

Energy conversion factors:
===========================================
From mdyne/A to kcal/mol/A^2:           143.933
From mdyne/A to kj/mol/A^2:             602.214
From mdyne/A to K/A^2:                  72429.7
From mdyne A/rad^2 to kcal/mol/deg^2:   0.0438444


Properties computed
===========================================================================
Movies: yes
	Movie snapshots are appended to file every 1 cycles
Radial Distribution Function: no
Number of molecules GCMC histogram: no
Histogram of the molecule positions: no
Free energy profiles: no
Pore Size Distribution Function: no
End-to-end distance: no
Histogram of the energy of the system: no
Compute thermodynamic factors: no
Framework spacing histograms: no
Residence times histograms: no
Distance histograms: no
Bend Angle histograms: no
Dihedral angle histograms: no
Angle between planes histograms: no
Molecule properties: no
Infra-red spectra: no
Mean-squared displacement using modified order-N algorithm: no
Velocity-autocorrelation function modified order-N algorithm: no
Rotational velocity-autocorrelation function modified order-N algorithm: no
Molecular orientation-autocorrelation function modified order-N algorithm: no
Mean-squared displacement (conventional algorithm): no
Velocity-autocorrelation function (conventional algorithm): no
3D density grid for adsorbates: no
Compute cation an/or adsorption sites: no
dcTST snapshots: no
Compute pressure and stress: no


VTK
===========================================================================
VTK fractional-range position framework atoms: [-0.001000,1.001000] [-0.001000,1.001000] [-0.001000,1.001000]
VTK fractional-range position framework bonds: [-0.151000,1.151000] [-0.151000,1.151000] [-0.151000,1.151000]
VTK fractional-range com-position adsorbate molecules: [-0.101000,1.101000] [-0.101000,1.101000] [-0.101000,1.101000]
VTK fractional-range com-position cation molecules: [-0.101000,1.101000] [-0.101000,1.101000] [-0.101000,1.101000]
	3D free energy grid made for the full simulation-cell


Thermo/Baro-stat NHC parameters
===========================================================================
External temperature: 300.000000 [K]
Beta: 0.004009 [energy unit]
External Pressure: 0.000000 [Pa]


Thermostat chain-length: 3
Timescale parameter for thermostat: 0.150000 [ps]
Barostat chain-length:   3
Timescale parameter for barostat:   0.150000 [ps]

Number of Yoshida-Suzuki decomposition steps: 5
Number of respa steps: 5


Method and settings for electrostatics
===============================================================================
Dielectric constant of the medium : 1.000000
Charge from charge-equilibration: no
Ewald summation is used (exact solution of a periodic system)
Relative precision                : 1e-08
Alpha convergence parameter       : 0.317887
kvec (x,y,z)                      : 6 6 6


CFC-RXMC parameters
===========================================================================
Number of reactions: 0


Rattle parameters
===========================================================================
Distance constraint type: r^2-r^2_0
Bend angle constraint type: theta-theta_0
Dihedral angle constraint type: phi-phi_0
Inversion-bend angle constraint type: chi-chi_0
Out-of-plane distance constraint type: r-r_0


Spectra parameters
===========================================================================
Compute normal modes: no


Minimization parameters
===========================================================================
Generalized coordinates are: Cartesian center-of-mass, elements of the orientational matrix p1,p2,p3 and strain
Potential derivatives are evaluated: analytically
Translation of the system is removed from the generalized Hessian: no
Rotation of the system is removed from the generalized Hessian: no
Maximum step-length: 0.3
Convergence factor: 1
Maximum number of minimization steps: 10000
Use gradients in the line-minimizations: yes
RMS gradient tolerance: 1e-06
Maximum gradient tolerance: 1e-06

Distance constraints: 0
Angle constraints: 0
Dihedral constraints: 0

Improper dihedral constraints: 0

Inversion-bend constraints: 0

Out-of-plane constraints: 0

Harmonic distance constraints: 0
Harmonic angle constraints: 0
Harmonic dihedral constraints: 0

Dihedral mid-point measurements: 0

Number of fixed framework atoms: 0  (active: 240)
fixed atom-list: 
Number of active framework atoms: 240  (fixed: 0)
active atom-list: 

Fixed adsorbate atoms:  
Fixed adsorbate groups (center-of-mass):  
Fixed adsorbate groups (orientation):  

Fixed cation atoms:  
Fixed cation groups (center-of-mass):  
Fixed cation groups (orientation):  


dcTST parameters
===========================================================================
Free energy profiles computed: no
Free energy profiles written every 5000 cycles
Free energy mapping: mapped to a,b,c-coordinates
BarrierPosition:       0.0000000000       0.0000000000       0.0000000000
BarrierNormal:         0.0000000000       0.0000000000       0.0000000000
Start with a molecule on top of the barrier: no
Maximum distance to barrier (e.g. distance to minumum free energy):       0.0000000000 [A]
Maximum trajectory time:      10.0000000000 [ps]
Each configuration is used with 5 different initial velocities


Cbmc parameters
===========================================================================
Biasing method: using only the VDW part
Number of trial positions:                             10
Number of trial positions coupled Torsion-selection:   100
Number of trial position for the first bead:           10
Number of trial moves per open bead:                   150
Target acceptance ratio small-mc scheme:               0.400000
Energy overlap criteria:                               100000
Minimal Rosenbluth factor:                             1e-150


Pseudo atoms: 9
===========================================================================
Pseudo Atom[   0] Name UNIT     Oxidation: +0       Element: -    pdb-name: H    Scat. Types:   0   1 Mass=1.000000000  B-factor:1.000   
                 Charge=1.000000000          Polarization=0.000000000  [A^3] (considered a charged atom and no polarization)  Interactions:  no
                 Anisotropic factor:    0.000 [-] (Relative), Radius:    1.000 [A], Framework-atom:  no
Pseudo Atom[   1] Name O        Oxidation: +0       Element: O    pdb-name: O    Scat. Types:   9   8 Mass=15.799400000 B-factor:1.000   
                 Charge=0.869020000          Polarization=0.000000000  [A^3] (considered a charged atom and no polarization)  Interactions:  no
                 Anisotropic factor:    0.000 [-] (Relative), Radius:    0.680 [A], Framework-atom: yes (charge from pseudo-atoms file)
Pseudo Atom[   2] Name Oa       Oxidation: +0       Element: O    pdb-name: O    Scat. Types:   9   8 Mass=15.799400000 B-factor:1.000   
                 Charge=0.869020000          Polarization=0.000000000  [A^3] (considered a charged atom and no polarization)  Interactions:  no
                 Anisotropic factor:    0.000 [-] (Relative), Radius:    0.680 [A], Framework-atom:  no
Pseudo Atom[   3] Name shO      Oxidation: +0       Element: O    pdb-name: O    Scat. Types:   9   8 Mass=0.200000000  B-factor:1.000   
                 Charge=-2.869020000         Polarization=0.000000000  [A^3] (considered a charged atom and no polarization)  Interactions: yes
                 Anisotropic factor:    0.000 [-] (Relative), Radius:    0.000 [A], Framework-atom:  no
Pseudo Atom[   4] Name shOa     Oxidation: +0       Element: O    pdb-name: O    Scat. Types:   9   8 Mass=0.200000000  B-factor:1.000   
                 Charge=-2.869020000         Polarization=0.000000000  [A^3] (considered a charged atom and no polarization)  Interactions: yes
                 Anisotropic factor:    0.000 [-] (Relative), Radius:    0.000 [A], Framework-atom:  no
Pseudo Atom[   5] Name Mg       Oxidation: +0       Element: Mg   pdb-name: Mg   Scat. Types:  13  12 Mass=24.305000000 B-factor:1.000   
                 Charge=2.000000000          Polarization=0.000000000  [A^3] (considered a charged atom and no polarization)  Interactions: yes
                 Anisotropic factor:    0.000 [-] (Relative), Radius:    1.180 [A], Framework-atom:  no
Pseudo Atom[   6] Name P        Oxidation: +0       Element: p    pdb-name: P    Scat. Types:  16  15 Mass=30.973762000 B-factor:1.000   
                 Charge=5.000000000          Polarization=0.000000000  [A^3] (considered a charged atom and no polarization)  Interactions: yes
                 Anisotropic factor:    0.000 [-] (Relative), Radius:    1.180 [A], Framework-atom:  no
Pseudo Atom[   7] Name Si       Oxidation: +0       Element: Si   pdb-name: Si   Scat. Types:  15  14 Mass=28.085500000 B-factor:1.000   
                 Charge=4.000000000          Polarization=0.000000000  [A^3] (considered a charged atom and no polarization)  Interactions: yes
                 Anisotropic factor:    0.000 [-] (Relative), Radius:    1.180 [A], Framework-atom: yes (charge from pseudo-atoms file)
Pseudo Atom[   8] Name Al       Oxidation: +0       Element: Al   pdb-name: Al   Scat. Types:  14  13 Mass=26.981538600 B-factor:1.000   
                 Charge=3.000000000          Polarization=0.000000000  [A^3] (considered a charged atom and no polarization)  Interactions: yes
                 Anisotropic factor:    0.000 [-] (Relative), Radius:    1.180 [A], Framework-atom:  no


Forcefield: local
===========================================================================
CutOff VDW : 12.000000 (144.000000)
CutOff VDW switching on: 10.800000 (116.640000)
CutOff charge-charge : 12.000000 (144.000000)
CutOff charge-charge switching on: 7.800000 (60.840000)
CutOff charge-bonddipole : 12.000000 (144.000000)
CutOff charge-bondipole switching on: 8.400000 (70.560000)
CutOff bonddipole-bonddipole : 12.000000 (144.000000)
CutOff bonddipole-bondipole switching on: 9.000000 (81.000000)
Polarization is neglected
All potentials are shifted to zero at the Cutoff

No general mixing rule: all cross term specified individualy
0 cross terms are overwritten using the individual mixing rules from the file 'force_field_mixing_rules.def'
and then 11 terms are overwritten using the specific interactions from the file 'force_field.def'

The force field and all the interactions:
    shO -     shO [BUCKINGHAM] p_0/k_B: 264165308.49759 [K], p_1:  6.71141 [A^-1], p_2/k_B: 323514.32817 [K A^6], shift/k_B: -0.10834 [K]
    shO -    shOa [BUCKINGHAM] p_0/k_B: 264165308.49759 [K], p_1:  6.71141 [A^-1], p_2/k_B: 323522.43171 [K A^6], shift/k_B: -0.10835 [K]
    shO -      Mg [BUCKINGHAM] p_0/k_B: 10984877.43221 [K], p_1:  3.14337 [A^-1], p_2/k_B:  0.00000 [K A^6], shift/k_B:  0.00000 [K]
    shO -       P [BUCKINGHAM] p_0/k_B: 10180855.14820 [K], p_1:  2.78242 [A^-1], p_2/k_B:  0.00000 [K A^6], shift/k_B:  0.00000 [K]
    shO -      Si [BUCKINGHAM] p_0/k_B: 14899125.31792 [K], p_1:  3.11993 [A^-1], p_2/k_B: 123722.52547 [K A^6], shift/k_B: -0.04143 [K]
    shO -      Al [BUCKINGHAM] p_0/k_B: 16945657.06900 [K], p_1:  3.34314 [A^-1], p_2/k_B:  0.00000 [K A^6], shift/k_B:  0.00000 [K]
   shOa -    shOa [BUCKINGHAM] p_0/k_B: 264165308.49759 [K], p_1:  6.71141 [A^-1], p_2/k_B: 323514.32817 [K A^6], shift/k_B: -0.10834 [K]
   shOa -      Mg [BUCKINGHAM] p_0/k_B: 10984877.43221 [K], p_1:  3.14337 [A^-1], p_2/k_B:  0.00000 [K A^6], shift/k_B:  0.00000 [K]
   shOa -       P [BUCKINGHAM] p_0/k_B: 10180855.14820 [K], p_1:  2.78242 [A^-1], p_2/k_B:  0.00000 [K A^6], shift/k_B:  0.00000 [K]
   shOa -      Si [BUCKINGHAM] p_0/k_B: 14899125.31792 [K], p_1:  3.11993 [A^-1], p_2/k_B: 123722.52547 [K A^6], shift/k_B: -0.04143 [K]
   shOa -      Al [BUCKINGHAM] p_0/k_B: 16945657.06900 [K], p_1:  3.34314 [A^-1], p_2/k_B:  0.00000 [K A^6], shift/k_B:  0.00000 [K]


MoleculeDefinitions:
===========================================================================
No components defined in 'simulation.input'


Framework Status
===========================================================================
Lowenstein's rule obeyed by framework
	Framework is modelled as: flexible using the model of local
	==================================================================================

	Number of Core/Shell definitions: 2
	--------------------------------------------
	Core/shell pair: core [O] and shell [shO] (96 pairs)
	Core/shell pair: core [Oa] and shell [shOa] (0 pairs)

	Number of Bonds definitions: 2
	--------------------------------------------
	Bond interaction between [O-shO] using bond-type: CORE_SHELL_SPRING (96 bonds)
	  args: 1   arg[0]=869410.688484 
	Bond interaction between [Oa-shOa] using bond-type: CORE_SHELL_SPRING (0 bonds)
	  args: 1   arg[0]=869410.688484 

	Number of Bend definitions: 3
	--------------------------------------------
	Bend interaction between [shO-Si-shO] using bend-type: CORE_SHELL_BEND (288 bends)
	  args: 2   arg[0]=24337.465000 arg[1]=109.470000 
	Bend interaction between [shOa-Si-shO] using bend-type: CORE_SHELL_BEND (0 bends)
	  args: 2   arg[0]=24337.465000 arg[1]=109.470000 
	Bend interaction between [shOa-Al-shOa] using bend-type: CORE_SHELL_BEND (0 bends)
	  args: 2   arg[0]=24337.465000 arg[1]=109.470000 


	Number of core/shells:                           96
	Number of bonds:                                 96
	Number of bond-dipoles:                          0
	Number of bends:                                 288
	Number of Urey-Bradleys:                         0
	Number of Inversion bends:                       0
	Number of Torsions:                              0
	Number of Improper Torsions:                     0
	Number of Out-of-planes:                         0
	Number of bond-bond cross terms:                 0
	Number of bond-bend cross terms:                 0
	Number of bend-bend cross terms:                 0
	Number of stretch-torsion cross terms:           0
	Number of bend-torsion cross terms:              0

	Number of charges:                               144
	Number of bonddipoles:                           0

	Number of Intra VDW:                             431784
	Number of Intra Coulomb charge-charge:           431784
	Number of Intra Coulomb charge-bonddipole:       0
	Number of Intra Coulomb bonddipoles:             0
	Number of excluded Intra VDW:                    96
	Number of excluded intra charge-charge:          96
	Number of excluded intra charge-bonddipole:      0
	Number of excluded intra bonddipole-bonddipole:  0


	Number of 1-2 intra-framework pairs: 455
	Number of 1-3 intra-framework pairs: 1554
	Number of 1-4 intra-framework pairs: 2803
	Number of 1-2,1-3 intra-framework pairs: 1579
	Number of 1-2,1-3,1-4 intra-framework pairs: 2804
	Bond interactions are removed (excluded from VDW and Coulomb interactions)
	Bend interactions are *included* in the VDW and Coulomb interactions
	Torsion interactions are *included* in the VDW and Coulomb interactions
	Remove12NeighboursFromVDWInteraction no
	Remove13NeighboursFromVDWInteraction no
	Remove14NeighboursFromVDWInteraction no
	Remove12NeighboursFromChargeChargeInteraction no
	Remove13NeighboursFromChargeChargeInteraction no
	Remove14NeighboursFromChargeChargeInteraction no
	Remove11NeighboursFromChargeBondDipoleInteraction no
	Remove12NeighboursFromChargeBondDipoleInteraction no
	Remove13NeighboursFromChargeBondDipoleInteraction no
	Remove14NeighboursFromChargeBondDipoleInteraction no
	Remove12NeighboursFromBondDipoleBondDipoleInteraction no
	Remove13NeighboursFromBondDipoleBondDipoleInteraction no
	Remove14NeighboursFromBondDipoleBondDipoleInteraction no
	InternalFrameworkLennardJonesInteractions yes


System Properties
===========================================================================
Unit cell size: 15.031000 15.031000 15.031000
Cell angles (radians)  alpha: 1.570796 beta: 1.570796 gamma: 1.570796
Cell angles (degrees)  alpha: 90.000000 beta: 90.000000 gamma: 90.000000
Number of unitcells [a]: 1
Number of unitcells [b]: 1
Number of unitcells [c]: 1

TRICLINIC Boundary conditions: alpha!=90 or beta!=90 or gamma!=90

Cartesian axis A is collinear with crystallographic axis a
Cartesian axis B is collinear with (axb)xA
Cartesian axis C is collinear with (axb)

lengths of cell vectors:
 15.03100  15.03100  15.03100
cosines of cell angles:
  0.00000   0.00000   0.00000
perpendicular cell widths:
 15.03100  15.03100  15.03100
volume of the cell:  3395.968274791001 (A^3)

Orthogonalization matrix Box
Transforms fractional coordinates abc into orthonormal Cartesian coordinates xyz
Deorthogonalization matrix InverseBox
Transforms orthonormal Cartesian coordinates xyz into fractional coordinates xyz

Box[0]:
	   15.031000000000     0.000000000000     0.000000000000
	    0.000000000000    15.031000000000     0.000000000000
	    0.000000000000     0.000000000000    15.031000000000

Inverse box[0]:
	    0.066529173042    -0.000000000000    -0.000000000000
	    0.000000000000     0.066529173042    -0.000000000000
	    0.000000000000     0.000000000000     0.066529173042


Unitcell box[0]:
	   15.031000000000     0.000000000000     0.000000000000
	    0.000000000000    15.031000000000     0.000000000000
	    0.000000000000     0.000000000000    15.031000000000

Unitcell inverse box[0]:
	    0.066529173042    -0.000000000000    -0.000000000000
	    0.000000000000     0.066529173042    -0.000000000000
	    0.000000000000     0.000000000000     0.066529173042

lengths of cell vectors (inverse box):
  0.06653   0.06653   0.06653
cosines of cell angles (inverse box):
 -0.00000  -0.00000  -0.00000
perpendicular cell widths (inverse):
  0.06653   0.06653   0.06653
volume of the cell:  3395.968274791001 (A^3)

Number of Replica Cells: 2 2 2
Replica Box:
	   30.062000000000     0.000000000000     0.000000000000
	    0.000000000000    30.062000000000     0.000000000000
	    0.000000000000     0.000000000000    30.062000000000

Shift of the Replica cells:
	[cell:  0]     0.000000000000     0.000000000000     0.000000000000
	[cell:  1]     0.000000000000     0.000000000000    15.031000000000
	[cell:  2]     0.000000000000    15.031000000000     0.000000000000
	[cell:  3]     0.000000000000    15.031000000000    15.031000000000
	[cell:  4]    15.031000000000     0.000000000000     0.000000000000
	[cell:  5]    15.031000000000     0.000000000000    15.031000000000
	[cell:  6]    15.031000000000    15.031000000000     0.000000000000
	[cell:  7]    15.031000000000    15.031000000000    15.031000000000

Framework is simulated as 'flexible'
Number of framework atoms: 240
Number of framework atoms in the unit cell: 144
Framework Mass:  2884.046399999976 [g/mol]
Framework Density:  1400.834168156120 [kg/m^3]    0.7091079796874 [cm^3/g]
Helium void fraction:    0.00000000
Available pore volume:    0.00000000 [A^3]    0.00000000 [cm^3/g]
Conversion factor from molecule/unit cell -> kmol/m^3: 0.488974, kmol/m^3 accesible pore volume: inf

Number Of Frameworks (per system): 1
----------------------------------------------------------------------
Framework name: RHO
Citation:
	author name:        'L.B. McCusker and Ch. Baerlocher'
	title:              'The effect of dehydration upon the crystal structure of zeolite rho'
	journal abbrev.:    'J. Solid State Chem.'
	first page:         812
	last page:          822
	year:               1984
	special details:    'Proceedings of the 6th International Zeolite Conference, Reno 1983'
Space group: 229
	Identifier: 529
	short international Hermann-Mauguin symbol: I m -3 m
	long international Hermann-Mauguin symbol: I 4/m -3 2/m
	Hall symbol: -I 4 2 3
	Number of lattice translations: 2 [ (0,0,0) (0.5,0.5,0.5) ]
	acentric/centric: acentric
	chiral: yes
	enantiomorphic: no
	number of operators: 96
		'x,y,z'
		'-x,-y,z'
		'-x,y,-z'
		'x,-y,-z'
		'z,x,y'
		'z,-x,-y'
		'-z,-x,y'
		'-z,x,-y'
		'y,z,x'
		'-y,z,-x'
		'y,-z,-x'
		'-y,-z,x'
		'y,x,-z'
		'-y,-x,-z'
		'y,-x,z'
		'-y,x,z'
		'x,z,-y'
		'-x,z,y'
		'-x,-z,-y'
		'x,-z,y'
		'z,y,-x'
		'z,-y,x'
		'-z,y,x'
		'-z,-y,-x'
		'-x,-y,-z'
		'x,y,-z'
		'x,-y,z'
		'-x,y,z'
		'-z,-x,-y'
		'-z,x,y'
		'z,x,-y'
		'z,-x,y'
		'-y,-z,-x'
		'y,-z,x'
		'-y,z,x'
		'y,z,-x'
		'-y,-x,z'
		'y,x,z'
		'-y,x,-z'
		'y,-x,-z'
		'-x,-z,y'
		'x,-z,-y'
		'x,z,y'
		'-x,z,-y'
		'-z,-y,x'
		'-z,y,-x'
		'z,-y,-x'
		'z,y,x'
		'x+1/2,y+1/2,z+1/2'
		'-x+1/2,-y+1/2,z+1/2'
		'-x+1/2,y+1/2,-z+1/2'
		'x+1/2,-y+1/2,-z+1/2'
		'z+1/2,x+1/2,y+1/2'
		'z+1/2,-x+1/2,-y+1/2'
		'-z+1/2,-x+1/2,y+1/2'
		'-z+1/2,x+1/2,-y+1/2'
		'y+1/2,z+1/2,x+1/2'
		'-y+1/2,z+1/2,-x+1/2'
		'y+1/2,-z+1/2,-x+1/2'
		'-y+1/2,-z+1/2,x+1/2'
		'y+1/2,x+1/2,-z+1/2'
		'-y+1/2,-x+1/2,-z+1/2'
		'y+1/2,-x+1/2,z+1/2'
		'-y+1/2,x+1/2,z+1/2'
		'x+1/2,z+1/2,-y+1/2'
		'-x+1/2,z+1/2,y+1/2'
		'-x+1/2,-z+1/2,-y+1/2'
		'x+1/2,-z+1/2,y+1/2'
		'z+1/2,y+1/2,-x+1/2'
		'z+1/2,-y+1/2,x+1/2'
		'-z+1/2,y+1/2,x+1/2'
		'-z+1/2,-y+1/2,-x+1/2'
		'-x+1/2,-y+1/2,-z+1/2'
		'x+1/2,y+1/2,-z+1/2'
		'x+1/2,-y+1/2,z+1/2'
		'-x+1/2,y+1/2,z+1/2'
		'-z+1/2,-x+1/2,-y+1/2'
		'-z+1/2,x+1/2,y+1/2'
		'z+1/2,x+1/2,-y+1/2'
		'z+1/2,-x+1/2,y+1/2'
		'-y+1/2,-z+1/2,-x+1/2'
		'y+1/2,-z+1/2,x+1/2'
		'-y+1/2,z+1/2,x+1/2'
		'y+1/2,z+1/2,-x+1/2'
		'-y+1/2,-x+1/2,z+1/2'
		'y+1/2,x+1/2,z+1/2'
		'-y+1/2,x+1/2,-z+1/2'
		'y+1/2,-x+1/2,-z+1/2'
		'-x+1/2,-z+1/2,y+1/2'
		'x+1/2,-z+1/2,-y+1/2'
		'x+1/2,z+1/2,y+1/2'
		'-x+1/2,z+1/2,-y+1/2'
		'-z+1/2,-y+1/2,x+1/2'
		'-z+1/2,y+1/2,-x+1/2'
		'z+1/2,-y+1/2,-x+1/2'
		'z+1/2,y+1/2,x+1/2'
Framework is simulated as 'flexible'
Shift: 0.000000 0.000000 0.000000
Number of framework atoms: 240
Number of asymmetric atoms: 3
Number of free framework atoms: 240
Number of fixed framework atoms: 0
Number of framework atoms in the unit cell: 144
Framework Mass:  2864.846399999994 [g/mol]
Framework Density:  1400.834168156120 [kg/m^3]
Framework has net charge: -0.000000
         largest charge : 4.000000
         smallest charge: -2.869020


Current Atom Status
===========================================================================
Number of framework atoms        : 240
Number of cations molecules      : 0
Number of adsorbate molecules    : 0
Pseudo Atoms    0 [    UNIT]:    0 atoms
Pseudo Atoms    1 [       O]:   96 atoms
Pseudo Atoms    2 [      Oa]:    0 atoms
Pseudo Atoms    3 [     shO]:   96 atoms
Pseudo Atoms    4 [    shOa]:    0 atoms
Pseudo Atoms    5 [      Mg]:    0 atoms
Pseudo Atoms    6 [       P]:    0 atoms
Pseudo Atoms    7 [      Si]:   48 atoms
Pseudo Atoms    8 [      Al]:    0 atoms


Current (initial full energy) Energy Status
===========================================================================

Internal energy:
Host stretch energy:                                       439668.20136552
Host UreyBradley energy:                                        0.00000000
Host bend energy:                                           57913.36179934
Host inversion-bend energy:                                     0.00000000
Host torsion energy:                                            0.00000000
Host improper torsion energy:                                   0.00000000
Host out-of-plane energy:                                       0.00000000
Host stretch/stretch energy:                                    0.00000000
Host bend/bend energy:                                          0.00000000
Host stretch/bend energy:                                       0.00000000
Host stretch/torsion energy:                                    0.00000000
Host bend/torsion energy:                                       0.00000000

Adsorbate stretch energy:                                       0.00000000
Adsorbate UreyBradley energy:                                   0.00000000
Adsorbate bend energy:                                          0.00000000
Adsorbate inversion-bend energy:                                0.00000000
Adsorbate torsion energy:                                       0.00000000
Adsorbate improper torsion energy:                              0.00000000
Adsorbate out-of-plane energy:                                  0.00000000
Adsorbate stretch/stretch energy:                               0.00000000
Adsorbate bend/bend energy:                                     0.00000000
Adsorbate stretch/bend energy:                                  0.00000000
Adsorbate stretch/torsion energy:                               0.00000000
Adsorbate bend/torsion energy:                                  0.00000000
Adsorbate intra VDW energy:                                     0.00000000
Adsorbate intra charge-charge Coulomb energy:                   0.00000000
Adsorbate intra charge-bonddipole Coulomb energy:               0.00000000
Adsorbate intra bonddipole-bonddipole Coulomb energy:           0.00000000

Cation stretch energy:                                          0.00000000
Cation UreyBradley energy:                                      0.00000000
Cation bend energy:                                             0.00000000
Cation inversion-bend energy:                                   0.00000000
Cation torsion energy:                                          0.00000000
Cation improper torsion energy:                                 0.00000000
Cation out-of-plane energy:                                     0.00000000
Cation stretch/stretch energy:                                  0.00000000
Cation bend/bend energy:                                        0.00000000
Cation stretch/bend energy:                                     0.00000000
Cation stretch/torsion energy:                                  0.00000000
Cation bend/torsion energy:                                     0.00000000
Cation intra VDW energy:                                        0.00000000
Cation intra charge-charge Coulomb energy:                      0.00000000
Cation intra charge-bonddipole Coulomb energy:                  0.00000000
Cation intra bonddipole-bonddipole Coulomb energy:              0.00000000

Host/Host energy:                                     -69795945.69668031
	Host/Host VDW energy:                                  14861215.62213984
	Host/Host Coulomb energy:                             -84657161.31882015
	Host/Host charge-charge Real energy:                  -50413880.91674037
	Host/Host charge-charge Fourier energy:               -34243280.40207980
	Host/Host charge-bonddipole Real energy:                      0.00000000
	Host/Host charge-bonddipole Fourier energy:                   0.00000000
	Host/Host bondipole-bonddipole Real energy:                   0.00000000
	Host/Host bondipole-bonddipole Fourier energy:                0.00000000

Host/Adsorbate energy:                                        0.00000000
	Host/Adsorbate VDW energy:                                    0.00000000
	Host/Adsorbate Coulomb energy:                                0.00000000
	Host/Adsorbate charge-charge Real energy:                     0.00000000
	Host/Adsorbate charge-charge Fourier energy:                  0.00000000
	Host/Adsorbate charge-bonddipole Real energy:                 0.00000000
	Host/Adsorbate charge-bonddipole Fourier energy:              0.00000000
	Host/Adsorbate bondipole-bonddipole Real energy:              0.00000000
	Host/Adsorbate bondipole-bonddipole Fourier energy:           0.00000000

Host/Cation energy:                                           0.00000000
	Host/Cation VDW energy:                                       0.00000000
	Host/Cation Coulomb energy:                                   0.00000000
	Host/Cation charge-charge Real energy:                        0.00000000
	Host/Cation charge-charge Fourier energy:                     0.00000000
	Host/Cation charge-bonddipole Real energy:                    0.00000000
	Host/Cation charge-bonddipole Fourier energy:                 0.00000000
	Host/Cation bondipole-bonddipole Real energy:                 0.00000000
	Host/Cation bondipole-bonddipole Fourier energy:              0.00000000

Adsorbate/Adsorbate energy:                                        0.00000000
	Adsorbate/Adsorbate VDW energy:                                    0.00000000
	Adsorbate/Adsorbate Coulomb energy:                                0.00000000
	Adsorbate/Adsorbate charge-charge Real energy:                     0.00000000
	Adsorbate/Adsorbate charge-charge Fourier energy:                  0.00000000
	Adsorbate/Adsorbate charge-bonddipole Real energy:                 0.00000000
	Adsorbate/Adsorbate charge-bonddipole Fourier energy:              0.00000000
	Adsorbate/Adsorbate bondipole-bonddipole Real energy:              0.00000000
	Adsorbate/Adsorbate bondipole-bonddipole Fourier energy:           0.00000000

Adsorbate/Cation energy:                                           0.00000000
	Adsorbate/Cation VDW energy:                                       0.00000000
	Adsorbate/Cation Coulomb energy:                                   0.00000000
	Adsorbate/Cation charge-charge Real energy:                        0.00000000
	Adsorbate/Cation charge-charge Fourier energy:                     0.00000000
	Adsorbate/Cation charge-bonddipole Real energy:                    0.00000000
	Adsorbate/Cation charge-bonddipole Fourier energy:                 0.00000000
	Adsorbate/Cation bondipole-bonddipole Real energy:                 0.00000000
	Adsorbate/Cation bondipole-bonddipole Fourier energy:              0.00000000

Cation/Cation energy:                                           0.00000000
	Cation/Cation VDW energy:                                       0.00000000
	Cation/Cation Coulomb energy:                                   0.00000000
	Cation/Cation charge-charge Real energy:                        0.00000000
	Cation/Cation charge-charge Fourier energy:                     0.00000000
	Cation/Cation charge-bonddipole Real energy:                    0.00000000
	Cation/Cation charge-bonddipole Fourier energy:                 0.00000000
	Cation/Cation bondipole-bonddipole Real energy:                 0.00000000
	Cation/Cation bondipole-bonddipole Fourier energy:              0.00000000

Polarization energy:
	Host polarization energy:                                     0.00000000
	Adsorbate polarization energy:                                0.00000000
	Cation polarization energy:                                   0.00000000
	Host back-polarization energy:                                     0.00000000
	Adsorbate back-polarization energy:                                0.00000000
	Cation back-polarization energy:                                   0.00000000

Tail-correction energy:                                       0.00000000

Distance constraints energy:                                  0.00000000
Angle constraints energy:                                     0.00000000
Dihedral constraints energy:                                  0.00000000
Inversion-bend constraints energy:                            0.00000000
Out-of-plane distance constraints energy:                     0.00000000
Exclusion constraints energy:                                 0.00000000

===================================================================
Total energy: -69298364.133515447378
	Total Van der Waals: 14861215.622140
	Total Coulomb: -84657161.318820

	Total Polarization: 0.000000







+++++++++++++++++++++++++++++++++++++++++++++++++++++++++++++++++++++++++
Starting simulation
+++++++++++++++++++++++++++++++++++++++++++++++++++++++++++++++++++++++++

Total number of variables used in the minimization: 720
Number of cell-variables used in the minimization: 0
Total number of variables used for generalized coordinates in the minimization: 720
Total number of variables used for positions in the minimization: 720
Total number of variables used for orientation in the minimization: 0

Minimization initial volume:    3395.9682747910 [A^3]
Minimization initial energy: -69298364.1335154623 [K]
Minimization initial strain:       0.0000000000 [-]
Minimization initial box:      15.0310000000       0.0000000000       0.0000000000[-]
                                0.0000000000      15.0310000000       0.0000000000[-]
                                0.0000000000       0.0000000000      15.0310000000[-]

Beginning Baker minimization:
-----------------------------
Computing generalized Hessian matrix
Computing eigenvalues and vectors
Shifting parameter: -1687121.3020410948 Lowest eigenvalue:  -44821.3020410947
Iteration: 0 Energy: -69298364.1335154623 Volume:    3395.9682747910 RMS gradient: 3369.61  Max gradient: 291078 Number of negative eigenvalues: 20 Number of zero eigenvalues: 3
      Box:      15.0310000000       0.0000000000       0.0000000000     Strain derivative: 2753891.0041296715  189909.5580150349  198411.4710715901
                 0.0000000000      15.0310000000       0.0000000000                         189909.5580150359 2796990.0140886577  146905.3780782435
                 0.0000000000       0.0000000000      15.0310000000                         198411.4710715911  146905.3780782434 2713168.2376956367
      Lengths:      15.0310000000      15.0310000000      15.0310000000, Angles:      90.0000000000      90.0000000000      90.0000000000

Computing generalized Hessian matrix
Computing eigenvalues and vectors
Shifting parameter: -1204159.1732607384 Lowest eigenvalue:  -12709.1732607384
Iteration: 1 Energy: -70071510.3162588477 Volume:    3395.9682747910 RMS gradient: 2625.14  Max gradient: 230534 Number of negative eigenvalues: 12 Number of zero eigenvalues: 3
      Box:      15.0310000000       0.0000000000       0.0000000000     Strain derivative: 2545435.5564688984  114828.6360238018  123388.3571318607
                 0.0000000000      15.0310000000       0.0000000000                         114828.6360238019 2575899.6004718374   94561.6697604563
                 0.0000000000       0.0000000000      15.0310000000                         123388.3571318598   94561.6697604557 2515251.3072174178
      Lengths:      15.0310000000      15.0310000000      15.0310000000, Angles:      90.0000000000      90.0000000000      90.0000000000

Computing generalized Hessian matrix
Computing eigenvalues and vectors
Shifting parameter: -769049.3246324500 Lowest eigenvalue:    1127.2491618720
Iteration: 2 Energy: -70651168.4674244225 Volume:    3395.9682747910 RMS gradient: 1904.69  Max gradient: 170617 Number of negative eigenvalues: 0 Number of zero eigenvalues: 3
      Box:      15.0310000000       0.0000000000       0.0000000000     Strain derivative: 2391751.8611164424   59641.0182232408   67121.8748469671
                 0.0000000000      15.0310000000       0.0000000000                          59641.0182232419 2412738.8560870304   54140.3826654896
                 0.0000000000       0.0000000000      15.0310000000                          67121.8748469669   54140.3826654893 2367332.9292455832
      Lengths:      15.0310000000      15.0310000000      15.0310000000, Angles:      90.0000000000      90.0000000000      90.0000000000

Computing generalized Hessian matrix
Computing eigenvalues and vectors
Shifting parameter: -426450.6812217381 Lowest eigenvalue:    2983.4357394598
Iteration: 3 Energy: -71043219.0538078994 Volume:    3395.9682747910 RMS gradient: 1243.41  Max gradient: 114204 Number of negative eigenvalues: 0 Number of zero eigenvalues: 3
      Box:      15.0310000000       0.0000000000       0.0000000000     Strain derivative: 2270704.3441794002   25196.9122163498   30919.2662148345
                 0.0000000000      15.0310000000       0.0000000000                          25196.9122163499 2285165.1721617421   27406.4895500447
                 0.0000000000       0.0000000000      15.0310000000                          30919.2662148340   27406.4895500447 2248783.5866932115
      Lengths:      15.0310000000      15.0310000000      15.0310000000, Angles:      90.0000000000      90.0000000000      90.0000000000

Computing generalized Hessian matrix
Computing eigenvalues and vectors
Shifting parameter: -229028.5216281694 Lowest eigenvalue:    3249.0609608741
Iteration: 4 Energy: -71266433.9429965466 Volume:    3395.9682747910 RMS gradient: 736.664  Max gradient: 69397.2 Number of negative eigenvalues: 0 Number of zero eigenvalues: 3
      Box:      15.0310000000       0.0000000000       0.0000000000     Strain derivative: 2134497.9306247886    9763.8118514394   13827.3629357620
                 0.0000000000      15.0310000000       0.0000000000                           9763.8118514402 2144868.6395832198   14704.6582227272
                 0.0000000000       0.0000000000      15.0310000000                          13827.3629357620   14704.6582227283 2114157.2018465810
      Lengths:      15.0310000000      15.0310000000      15.0310000000, Angles:      90.0000000000      90.0000000000      90.0000000000

Computing generalized Hessian matrix
Computing eigenvalues and vectors
Shifting parameter: -143322.3569190958 Lowest eigenvalue:    3226.1605438706
Iteration: 5 Energy: -71380069.1487365514 Volume:    3395.9682747910 RMS gradient: 449.656  Max gradient: 42709.4 Number of negative eigenvalues: 0 Number of zero eigenvalues: 3
      Box:      15.0310000000       0.0000000000       0.0000000000     Strain derivative: 1953751.4097215112    4806.6525966357    7970.5686981917
                 0.0000000000      15.0310000000       0.0000000000                           4806.6525966358 1961642.8243246104   10569.2640902868
                 0.0000000000       0.0000000000      15.0310000000                           7970.5686981915   10569.2640902860 1935660.2922742488
      Lengths:      15.0310000000      15.0310000000      15.0310000000, Angles:      90.0000000000      90.0000000000      90.0000000000

Computing generalized Hessian matrix
Computing eigenvalues and vectors
Shifting parameter:  -96679.0206969739 Lowest eigenvalue:    3086.7375863547
Iteration: 6 Energy: -71448362.5061025172 Volume:    3395.9682747910 RMS gradient: 288.017  Max gradient: 26935 Number of negative eigenvalues: 0 Number of zero eigenvalues: 3
      Box:      15.0310000000       0.0000000000       0.0000000000     Strain derivative: 1748515.6089185507    2691.7752914857    5444.4374196779
                 0.0000000000      15.0310000000       0.0000000000                           2691.7752914863 1754758.0116397426    8747.6719000594
                 0.0000000000       0.0000000000      15.0310000000                           5444.4374196779    8747.6719000601 1733111.9782211450
      Lengths:      15.0310000000      15.0310000000      15.0310000000, Angles:      90.0000000000      90.0000000000      90.0000000000

Computing generalized Hessian matrix
Computing eigenvalues and vectors
Shifting parameter:  -63552.3276257051 Lowest eigenvalue:    2901.2540594701
Iteration: 7 Energy: -71494733.7577397823 Volume:    3395.9682747910 RMS gradient: 186.289  Max gradient: 16734.6 Number of negative eigenvalues: 0 Number of zero eigenvalues: 3
      Box:      15.0310000000       0.0000000000       0.0000000000     Strain derivative: 1533538.3395111538    1344.7991231858    3842.0579358696
                 0.0000000000      15.0310000000       0.0000000000                           1344.7991231864 1538615.6556407320    7320.4347376474
                 0.0000000000       0.0000000000      15.0310000000                           3842.0579358696    7320.4347376471 1520978.8384913090
      Lengths:      15.0310000000      15.0310000000      15.0310000000, Angles:      90.0000000000      90.0000000000      90.0000000000

Computing generalized Hessian matrix
Computing eigenvalues and vectors
Shifting parameter:  -37088.3134025049 Lowest eigenvalue:    2692.0472039607
Iteration: 8 Energy: -71526572.6436537802 Volume:    3395.9682747910 RMS gradient: 116.224  Max gradient: 9794.61 Number of negative eigenvalues: 0 Number of zero eigenvalues: 3
      Box:      15.0310000000       0.0000000000       0.0000000000     Strain derivative: 1316646.5897942837     341.5587067624    2579.3566324941
                 0.0000000000      15.0310000000       0.0000000000                            341.5587067624 1320860.8821708919    5846.8753945307
                 0.0000000000       0.0000000000      15.0310000000                           2579.3566324929    5846.8753945307 1306982.5155345392
      Lengths:      15.0310000000      15.0310000000      15.0310000000, Angles:      90.0000000000      90.0000000000      90.0000000000

Computing generalized Hessian matrix
Computing eigenvalues and vectors
Shifting parameter:  -16011.4359132215 Lowest eigenvalue:    2469.9285771355
Iteration: 9 Energy: -71546789.9270266891 Volume:    3395.9682747910 RMS gradient: 63.6956  Max gradient: 4924.68 Number of negative eigenvalues: 0 Number of zero eigenvalues: 3
      Box:      15.0310000000       0.0000000000       0.0000000000     Strain derivative: 1103301.2449606475    -370.6666477421    1498.5788279588
                 0.0000000000      15.0310000000       0.0000000000                           -370.6666477423 1106767.5883417083    4192.3116527276
                 0.0000000000       0.0000000000      15.0310000000                           1498.5788279604    4192.3116527275 1096643.6592014113
      Lengths:      15.0310000000      15.0310000000      15.0310000000, Angles:      90.0000000000      90.0000000000      90.0000000000

Computing generalized Hessian matrix
Computing eigenvalues and vectors
Shifting parameter:   -2489.0542400383 Lowest eigenvalue:    1919.7802447260
Iteration: 10 Energy: -71556815.6519177556 Volume:    3395.9682747910 RMS gradient: 21.3165  Max gradient: 1432.01 Number of negative eigenvalues: 0 Number of zero eigenvalues: 3
      Box:      15.0310000000       0.0000000000       0.0000000000     Strain derivative:  898647.0825674100    -679.1534150931     548.9285031399
                 0.0000000000      15.0310000000       0.0000000000                           -679.1534150926  901072.4610026772    2166.8319967392
                 0.0000000000       0.0000000000      15.0310000000                            548.9285031404    2166.8319967391  895459.4530673668
      Lengths:      15.0310000000      15.0310000000      15.0310000000, Angles:      90.0000000000      90.0000000000      90.0000000000

Computing generalized Hessian matrix
Computing eigenvalues and vectors
Shifting parameter:      -8.8207686656 Lowest eigenvalue:    1547.1371563676
Iteration: 11 Energy: -71558371.2887705415 Volume:    3395.9682747910 RMS gradient: 0.971469  Max gradient: 97.6607 Number of negative eigenvalues: 0 Number of zero eigenvalues: 3
      Box:      15.0310000000       0.0000000000       0.0000000000     Strain derivative:  790215.1173620077    -227.5658074123      17.7138637496
                 0.0000000000      15.0310000000       0.0000000000                           -227.5658074116  790782.0105003117     297.6897412571
                 0.0000000000       0.0000000000      15.0310000000                             17.7138637490     297.6897412572  789935.4420685670
      Lengths:      15.0310000000      15.0310000000      15.0310000000, Angles:      90.0000000000      90.0000000000      90.0000000000

Computing generalized Hessian matrix
Computing eigenvalues and vectors
Shifting parameter:      -0.0002171476 Lowest eigenvalue:    1535.2519477710
Iteration: 12 Energy: -71558376.6083727330 Volume:    3395.9682747910 RMS gradient: 0.00541677  Max gradient: 0.660217 Number of negative eigenvalues: 0 Number of zero eigenvalues: 3
      Box:      15.0310000000       0.0000000000       0.0000000000     Strain derivative:  786626.6526218932      -0.6603553063      -0.8310401914
                 0.0000000000      15.0310000000       0.0000000000                             -0.6603553056  786628.5279997047       0.3384706825
                 0.0000000000       0.0000000000      15.0310000000                             -0.8310401915       0.3384706833  786625.5707977235
      Lengths:      15.0310000000      15.0310000000      15.0310000000, Angles:      90.0000000000      90.0000000000      90.0000000000

Computing generalized Hessian matrix
Computing eigenvalues and vectors
Shifting parameter:      -0.0000000000 Lowest eigenvalue:    1535.2214105356
Iteration: 13 Energy: -71558376.6084989309 Volume:    3395.9682747910 RMS gradient: 2.29231e-07  Max gradient: 2.86998e-05 Number of negative eigenvalues: 0 Number of zero eigenvalues: 3
      Box:      15.0310000000       0.0000000000       0.0000000000     Strain derivative:  786615.4001289365      -0.0000112261       0.0000031887
                 0.0000000000      15.0310000000       0.0000000000                             -0.0000112258  786615.4002326390       0.0000083750
                 0.0000000000       0.0000000000      15.0310000000                              0.0000031882       0.0000083755  786615.4001985114
      Lengths:      15.0310000000      15.0310000000      15.0310000000, Angles:      90.0000000000      90.0000000000      90.0000000000

Computing generalized Hessian matrix
Computing eigenvalues and vectors
Shifting parameter:      -0.0000000000 Lowest eigenvalue:    1535.2214087802
Iteration: 14 Energy: -71558376.6085042059 Volume:    3395.9682747910 RMS gradient: 1.99355e-11  Max gradient: 2.33355e-09 Number of negative eigenvalues: 0 Number of zero eigenvalues: 3
      Box:      15.0310000000       0.0000000000       0.0000000000     Strain derivative:  786615.3995869083       0.0000000006      -0.0000000011
                 0.0000000000      15.0310000000       0.0000000000                              0.0000000010  786615.3995872232      -0.0000000006
                 0.0000000000       0.0000000000      15.0310000000                             -0.0000000006      -0.0000000003  786615.3995872173
      Lengths:      15.0310000000      15.0310000000      15.0310000000, Angles:      90.0000000000      90.0000000000      90.0000000000

SUCCES: RMS Gradient tolerance 1e-06 reached (1.99355e-11)
        Max Gradient tolerance 1e-06 reached (2.33355e-09)


Variable vector:
================
x: 0 = 3.77857
x: 1 = 1.56386
x: 2 = 5.99325
x: 3 = 3.33187
x: 4 = 0.0202951
x: 5 = 5.77271
x: 6 = 2.5215
x: 7 = 2.52098
x: 8 = 5.63727
x: 9 = -1.52274
x: 10 = 3.77805
x: 11 = 5.99325
x: 12 = 0.0208229
x: 13 = 3.33134
x: 14 = 5.77271
x: 15 = -2.47986
x: 16 = 2.52098
x: 17 = 5.63727
x: 18 = -3.73693
x: 19 = -1.52327
x: 20 = 5.99325
x: 21 = -3.29022
x: 22 = 0.0202951
x: 23 = 5.77271
x: 24 = -2.47986
x: 25 = -2.48039
x: 26 = 5.63727
x: 27 = 1.56439
x: 28 = -3.73745
x: 29 = 5.99325
x: 30 = 0.0208229
x: 31 = -3.29075
x: 32 = 5.77271
x: 33 = 2.5215
x: 34 = -2.48039
x: 35 = 5.63727
x: 36 = 3.77857
x: 37 = -1.52327
x: 38 = -5.95063
x: 39 = 3.33187
x: 40 = 0.0202951
x: 41 = -5.73009
x: 42 = 2.5215
x: 43 = -2.48039
x: 44 = -5.59465
x: 45 = 1.56439
x: 46 = 3.77805
x: 47 = -5.95063
x: 48 = 0.0208229
x: 49 = 3.33134
x: 50 = -5.73009
x: 51 = 2.5215
x: 52 = 2.52098
x: 53 = -5.59465
x: 54 = -3.73693
x: 55 = 1.56386
x: 56 = -5.95063
x: 57 = -3.29022
x: 58 = 0.0202951
x: 59 = -5.73009
x: 60 = -2.47986
x: 61 = 2.52098
x: 62 = -5.59465
x: 63 = -1.52274
x: 64 = -3.73745
x: 65 = -5.95063
x: 66 = 0.0208229
x: 67 = -3.29075
x: 68 = -5.73009
x: 69 = -2.47986
x: 70 = -2.48039
x: 71 = -5.59465
x: 72 = 5.99276
x: 73 = 3.77805
x: 74 = 1.56487
x: 75 = 5.77222
x: 76 = 3.33134
x: 77 = 0.0213097
x: 78 = 5.63678
x: 79 = 2.52098
x: 80 = 2.52199
x: 81 = -3.73693
x: 82 = 5.99223
x: 83 = 1.56487
x: 84 = -3.29022
x: 85 = 5.77169
x: 86 = 0.0213097
x: 87 = -2.47986
x: 88 = 5.63625
x: 89 = 2.52199
x: 90 = -5.95111
x: 91 = -3.73745
x: 92 = 1.56487
x: 93 = -5.73058
x: 94 = -3.29075
x: 95 = 0.0213097
x: 96 = -5.59513
x: 97 = -2.48039
x: 98 = 2.52199
x: 99 = 3.77857
x: 100 = -5.95164
x: 101 = 1.56487
x: 102 = 3.33187
x: 103 = -5.7311
x: 104 = 0.0213097
x: 105 = 2.5215
x: 106 = -5.59566
x: 107 = 2.52199
x: 108 = 5.99276
x: 109 = -3.73745
x: 110 = -1.52225
x: 111 = 5.77222
x: 112 = -3.29075
x: 113 = 0.0213097
x: 114 = 5.63678
x: 115 = -2.48039
x: 116 = -2.47937
x: 117 = 3.77857
x: 118 = 5.99223
x: 119 = -1.52225
x: 120 = 3.33187
x: 121 = 5.77169
x: 122 = 0.0213097
x: 123 = 2.5215
x: 124 = 5.63625
x: 125 = -2.47937
x: 126 = -5.95111
x: 127 = 3.77805
x: 128 = -1.52225
x: 129 = -5.73058
x: 130 = 3.33134
x: 131 = 0.0213097
x: 132 = -5.59513
x: 133 = 2.52098
x: 134 = -2.47937
x: 135 = -3.73693
x: 136 = -5.95164
x: 137 = -1.52225
x: 138 = -3.29022
x: 139 = -5.7311
x: 140 = 0.0213097
x: 141 = -2.47986
x: 142 = -5.59566
x: 143 = -2.47937
x: 144 = 1.56439
x: 145 = 5.99223
x: 146 = 3.77906
x: 147 = 0.0208229
x: 148 = 5.77169
x: 149 = 3.33235
x: 150 = 2.5215
x: 151 = 5.63625
x: 152 = 2.52199
x: 153 = 1.56439
x: 154 = -5.95164
x: 155 = -3.73644
x: 156 = 0.0208229
x: 157 = -5.7311
x: 158 = -3.28973
x: 159 = 2.5215
x: 160 = -5.59566
x: 161 = -2.47937
x: 162 = 5.99276
x: 163 = 1.56386
x: 164 = -3.73644
x: 165 = 5.77222
x: 166 = 0.0202951
x: 167 = -3.28973
x: 168 = 5.63678
x: 169 = 2.52098
x: 170 = -2.47937
x: 171 = -1.52274
x: 172 = 5.99223
x: 173 = -3.73644
x: 174 = 0.0208229
x: 175 = 5.77169
x: 176 = -3.28973
x: 177 = -2.47986
x: 178 = 5.63625
x: 179 = -2.47937
x: 180 = -5.95111
x: 181 = -1.52327
x: 182 = -3.73644
x: 183 = -5.73058
x: 184 = 0.0202951
x: 185 = -3.28973
x: 186 = -5.59513
x: 187 = -2.48039
x: 188 = -2.47937
x: 189 = -1.52274
x: 190 = -5.95164
x: 191 = 3.77906
x: 192 = 0.0208229
x: 193 = -5.7311
x: 194 = 3.33235
x: 195 = -2.47986
x: 196 = -5.59566
x: 197 = 2.52199
x: 198 = 5.99276
x: 199 = -1.52327
x: 200 = 3.77906
x: 201 = 5.77222
x: 202 = 0.0202951
x: 203 = 3.33235
x: 204 = 5.63678
x: 205 = -2.48039
x: 206 = 2.52199
x: 207 = -5.95111
x: 208 = 1.56386
x: 209 = 3.77906
x: 210 = -5.73058
x: 211 = 0.0202951
x: 212 = 3.33235
x: 213 = -5.59513
x: 214 = 2.52098
x: 215 = 2.52199
x: 216 = -3.73693
x: 217 = -1.52327
x: 218 = -5.95063
x: 219 = 1.56439
x: 220 = -3.73745
x: 221 = -5.95063
x: 222 = 3.77857
x: 223 = 1.56386
x: 224 = -5.95063
x: 225 = -1.52274
x: 226 = 3.77805
x: 227 = -5.95063
x: 228 = -3.73693
x: 229 = 1.56386
x: 230 = 5.99325
x: 231 = -1.52274
x: 232 = -3.73745
x: 233 = 5.99325
x: 234 = 3.77857
x: 235 = -1.52327
x: 236 = 5.99325
x: 237 = 1.56439
x: 238 = 3.77805
x: 239 = 5.99325
x: 240 = -5.95111
x: 241 = -3.73745
x: 242 = -1.52225
x: 243 = 3.77857
x: 244 = -5.95164
x: 245 = -1.52225
x: 246 = 5.99276
x: 247 = 3.77805
x: 248 = -1.52225
x: 249 = -3.73693
x: 250 = 5.99223
x: 251 = -1.52225
x: 252 = -5.95111
x: 253 = 3.77805
x: 254 = 1.56487
x: 255 = -3.73693
x: 256 = -5.95164
x: 257 = 1.56487
x: 258 = 5.99276
x: 259 = -3.73745
x: 260 = 1.56487
x: 261 = 3.77857
x: 262 = 5.99223
x: 263 = 1.56487
x: 264 = -1.52274
x: 265 = -5.95164
x: 266 = -3.73644
x: 267 = -1.52274
x: 268 = 5.99223
x: 269 = 3.77906
x: 270 = -5.95111
x: 271 = -1.52327
x: 272 = 3.77906
x: 273 = 1.56439
x: 274 = -5.95164
x: 275 = 3.77906
x: 276 = 5.99276
x: 277 = 1.56386
x: 278 = 3.77906
x: 279 = 1.56439
x: 280 = 5.99223
x: 281 = -3.73644
x: 282 = -5.95111
x: 283 = 1.56386
x: 284 = -3.73644
x: 285 = 5.99276
x: 286 = -1.52327
x: 287 = -3.73644
x: 288 = 10.8474
x: 289 = 7.5358
x: 290 = 13.2882
x: 291 = 10.037
x: 292 = 10.0365
x: 293 = 13.1528
x: 294 = 7.53632
x: 295 = 10.8468
x: 296 = 13.2882
x: 297 = 5.03564
x: 298 = 10.0365
x: 299 = 13.1528
x: 300 = 4.22528
x: 301 = 7.5358
x: 302 = 13.2882
x: 303 = 5.03564
x: 304 = 5.03511
x: 305 = 13.1528
x: 306 = 7.53632
x: 307 = 4.22475
x: 308 = 13.2882
x: 309 = 10.037
x: 310 = 5.03511
x: 311 = 13.1528
x: 312 = 10.8474
x: 313 = 7.5358
x: 314 = 1.78541
x: 315 = 10.037
x: 316 = 5.03511
x: 317 = 1.92085
x: 318 = 7.53632
x: 319 = 10.8468
x: 320 = 1.78541
x: 321 = 10.037
x: 322 = 10.0365
x: 323 = 1.92085
x: 324 = 4.22528
x: 325 = 7.5358
x: 326 = 1.78541
x: 327 = 5.03564
x: 328 = 10.0365
x: 329 = 1.92085
x: 330 = 7.53632
x: 331 = 4.22475
x: 332 = 1.78541
x: 333 = 5.03564
x: 334 = 5.03511
x: 335 = 1.92085
x: 336 = 13.2877
x: 337 = 10.8468
x: 338 = 7.53681
x: 339 = 13.1523
x: 340 = 10.0365
x: 341 = 10.0375
x: 342 = 4.22528
x: 343 = 13.2872
x: 344 = 7.53681
x: 345 = 5.03564
x: 346 = 13.1518
x: 347 = 10.0375
x: 348 = 1.78492
x: 349 = 4.22475
x: 350 = 7.53681
x: 351 = 1.92037
x: 352 = 5.03511
x: 353 = 10.0375
x: 354 = 10.8474
x: 355 = 1.7844
x: 356 = 7.53681
x: 357 = 10.037
x: 358 = 1.91984
x: 359 = 10.0375
x: 360 = 13.2877
x: 361 = 4.22475
x: 362 = 7.53681
x: 363 = 13.1523
x: 364 = 5.03511
x: 365 = 5.03613
x: 366 = 10.8474
x: 367 = 13.2872
x: 368 = 7.53681
x: 369 = 10.037
x: 370 = 13.1518
x: 371 = 5.03613
x: 372 = 1.78492
x: 373 = 10.8468
x: 374 = 7.53681
x: 375 = 1.92037
x: 376 = 10.0365
x: 377 = 5.03613
x: 378 = 4.22528
x: 379 = 1.7844
x: 380 = 7.53681
x: 381 = 5.03564
x: 382 = 1.91984
x: 383 = 5.03613
x: 384 = 7.53632
x: 385 = 13.2872
x: 386 = 10.8479
x: 387 = 10.037
x: 388 = 13.1518
x: 389 = 10.0375
x: 390 = 7.53632
x: 391 = 1.7844
x: 392 = 4.22577
x: 393 = 10.037
x: 394 = 1.91984
x: 395 = 5.03613
x: 396 = 13.2877
x: 397 = 7.5358
x: 398 = 4.22577
x: 399 = 13.1523
x: 400 = 10.0365
x: 401 = 5.03613
x: 402 = 7.53632
x: 403 = 13.2872
x: 404 = 4.22577
x: 405 = 5.03564
x: 406 = 13.1518
x: 407 = 5.03613
x: 408 = 1.78492
x: 409 = 7.5358
x: 410 = 4.22577
x: 411 = 1.92037
x: 412 = 5.03511
x: 413 = 5.03613
x: 414 = 7.53632
x: 415 = 1.7844
x: 416 = 10.8479
x: 417 = 5.03564
x: 418 = 1.91984
x: 419 = 10.0375
x: 420 = 13.2877
x: 421 = 7.5358
x: 422 = 10.8479
x: 423 = 13.1523
x: 424 = 5.03511
x: 425 = 10.0375
x: 426 = 1.78492
x: 427 = 7.5358
x: 428 = 10.8479
x: 429 = 1.92037
x: 430 = 10.0365
x: 431 = 10.0375
x: 432 = 3.42617
x: 433 = 0.0202951
x: 434 = 5.81895
x: 435 = 2.55371
x: 436 = 2.55318
x: 437 = 5.71356
x: 438 = 0.0208229
x: 439 = 3.42564
x: 440 = 5.81895
x: 441 = -2.51206
x: 442 = 2.55318
x: 443 = 5.71356
x: 444 = -3.38452
x: 445 = 0.0202951
x: 446 = 5.81895
x: 447 = -2.51206
x: 448 = -2.51259
x: 449 = 5.71356
x: 450 = 0.0208229
x: 451 = -3.38505
x: 452 = 5.81895
x: 453 = 2.55371
x: 454 = -2.51259
x: 455 = 5.71356
x: 456 = 3.42617
x: 457 = 0.0202951
x: 458 = -5.77633
x: 459 = 2.55371
x: 460 = -2.51259
x: 461 = -5.67094
x: 462 = 0.0208229
x: 463 = 3.42564
x: 464 = -5.77633
x: 465 = 2.55371
x: 466 = 2.55318
x: 467 = -5.67094
x: 468 = -3.38452
x: 469 = 0.0202951
x: 470 = -5.77633
x: 471 = -2.51206
x: 472 = 2.55318
x: 473 = -5.67094
x: 474 = 0.0208229
x: 475 = -3.38505
x: 476 = -5.77633
x: 477 = -2.51206
x: 478 = -2.51259
x: 479 = -5.67094
x: 480 = 5.81846
x: 481 = 3.42564
x: 482 = 0.0213097
x: 483 = 5.71308
x: 484 = 2.55318
x: 485 = 2.5542
x: 486 = -3.38452
x: 487 = 5.81793
x: 488 = 0.0213097
x: 489 = -2.51206
x: 490 = 5.71255
x: 491 = 2.5542
x: 492 = -5.77682
x: 493 = -3.38505
x: 494 = 0.0213097
x: 495 = -5.67143
x: 496 = -2.51259
x: 497 = 2.5542
x: 498 = 3.42617
x: 499 = -5.77734
x: 500 = 0.0213097
x: 501 = 2.55371
x: 502 = -5.67196
x: 503 = 2.5542
x: 504 = 5.81846
x: 505 = -3.38505
x: 506 = 0.0213097
x: 507 = 5.71308
x: 508 = -2.51259
x: 509 = -2.51158
x: 510 = 3.42617
x: 511 = 5.81793
x: 512 = 0.0213097
x: 513 = 2.55371
x: 514 = 5.71255
x: 515 = -2.51158
x: 516 = -5.77682
x: 517 = 3.42564
x: 518 = 0.0213097
x: 519 = -5.67143
x: 520 = 2.55318
x: 521 = -2.51158
x: 522 = -3.38452
x: 523 = -5.77734
x: 524 = 0.0213097
x: 525 = -2.51206
x: 526 = -5.67196
x: 527 = -2.51158
x: 528 = 0.0208229
x: 529 = 5.81793
x: 530 = 3.42666
x: 531 = 2.55371
x: 532 = 5.71255
x: 533 = 2.5542
x: 534 = 0.0208229
x: 535 = -5.77734
x: 536 = -3.38404
x: 537 = 2.55371
x: 538 = -5.67196
x: 539 = -2.51158
x: 540 = 5.81846
x: 541 = 0.0202951
x: 542 = -3.38404
x: 543 = 5.71308
x: 544 = 2.55318
x: 545 = -2.51158
x: 546 = 0.0208229
x: 547 = 5.81793
x: 548 = -3.38404
x: 549 = -2.51206
x: 550 = 5.71255
x: 551 = -2.51158
x: 552 = -5.77682
x: 553 = 0.0202951
x: 554 = -3.38404
x: 555 = -5.67143
x: 556 = -2.51259
x: 557 = -2.51158
x: 558 = 0.0208229
x: 559 = -5.77734
x: 560 = 3.42666
x: 561 = -2.51206
x: 562 = -5.67196
x: 563 = 2.5542
x: 564 = 5.81846
x: 565 = 0.0202951
x: 566 = 3.42666
x: 567 = 5.71308
x: 568 = -2.51259
x: 569 = 2.5542
x: 570 = -5.77682
x: 571 = 0.0202951
x: 572 = 3.42666
x: 573 = -5.67143
x: 574 = 2.55318
x: 575 = 2.5542
x: 576 = 10.9417
x: 577 = 7.5358
x: 578 = 13.3344
x: 579 = 10.0692
x: 580 = 10.0687
x: 581 = 13.2291
x: 582 = 7.53632
x: 583 = 10.9411
x: 584 = 13.3344
x: 585 = 5.00344
x: 586 = 10.0687
x: 587 = 13.2291
x: 588 = 4.13098
x: 589 = 7.5358
x: 590 = 13.3344
x: 591 = 5.00344
x: 592 = 5.00291
x: 593 = 13.2291
x: 594 = 7.53632
x: 595 = 4.13045
x: 596 = 13.3344
x: 597 = 10.0692
x: 598 = 5.00291
x: 599 = 13.2291
x: 600 = 10.9417
x: 601 = 7.5358
x: 602 = 1.73917
x: 603 = 10.0692
x: 604 = 5.00291
x: 605 = 1.84456
x: 606 = 7.53632
x: 607 = 10.9411
x: 608 = 1.73917
x: 609 = 10.0692
x: 610 = 10.0687
x: 611 = 1.84456
x: 612 = 4.13098
x: 613 = 7.5358
x: 614 = 1.73917
x: 615 = 5.00344
x: 616 = 10.0687
x: 617 = 1.84456
x: 618 = 7.53632
x: 619 = 4.13045
x: 620 = 1.73917
x: 621 = 5.00344
x: 622 = 5.00291
x: 623 = 1.84456
x: 624 = 13.334
x: 625 = 10.9411
x: 626 = 7.53681
x: 627 = 13.2286
x: 628 = 10.0687
x: 629 = 10.0697
x: 630 = 4.13098
x: 631 = 13.3334
x: 632 = 7.53681
x: 633 = 5.00344
x: 634 = 13.228
x: 635 = 10.0697
x: 636 = 1.73868
x: 637 = 4.13045
x: 638 = 7.53681
x: 639 = 1.84407
x: 640 = 5.00291
x: 641 = 10.0697
x: 642 = 10.9417
x: 643 = 1.73816
x: 644 = 7.53681
x: 645 = 10.0692
x: 646 = 1.84354
x: 647 = 10.0697
x: 648 = 13.334
x: 649 = 4.13045
x: 650 = 7.53681
x: 651 = 13.2286
x: 652 = 5.00291
x: 653 = 5.00392
x: 654 = 10.9417
x: 655 = 13.3334
x: 656 = 7.53681
x: 657 = 10.0692
x: 658 = 13.228
x: 659 = 5.00392
x: 660 = 1.73868
x: 661 = 10.9411
x: 662 = 7.53681
x: 663 = 1.84407
x: 664 = 10.0687
x: 665 = 5.00392
x: 666 = 4.13098
x: 667 = 1.73816
x: 668 = 7.53681
x: 669 = 5.00344
x: 670 = 1.84354
x: 671 = 5.00392
x: 672 = 7.53632
x: 673 = 13.3334
x: 674 = 10.9422
x: 675 = 10.0692
x: 676 = 13.228
x: 677 = 10.0697
x: 678 = 7.53632
x: 679 = 1.73816
x: 680 = 4.13146
x: 681 = 10.0692
x: 682 = 1.84354
x: 683 = 5.00392
x: 684 = 13.334
x: 685 = 7.5358
x: 686 = 4.13146
x: 687 = 13.2286
x: 688 = 10.0687
x: 689 = 5.00392
x: 690 = 7.53632
x: 691 = 13.3334
x: 692 = 4.13146
x: 693 = 5.00344
x: 694 = 13.228
x: 695 = 5.00392
x: 696 = 1.73868
x: 697 = 7.5358
x: 698 = 4.13146
x: 699 = 1.84407
x: 700 = 5.00291
x: 701 = 5.00392
x: 702 = 7.53632
x: 703 = 1.73816
x: 704 = 10.9422
x: 705 = 5.00344
x: 706 = 1.84354
x: 707 = 10.0697
x: 708 = 13.334
x: 709 = 7.5358
x: 710 = 10.9422
x: 711 = 13.2286
x: 712 = 5.00291
x: 713 = 10.0697
x: 714 = 1.73868
x: 715 = 7.5358
x: 716 = 10.9422
x: 717 = 1.84407
x: 718 = 10.0687
x: 719 = 10.0697




Gradient vector:
================
Gradient: 0 = -4.26259e-10
Gradient: 1 = 6.68809e-10
Gradient: 2 = 4.5164e-10
Gradient: 3 = 1.76556e-10
Gradient: 4 = 2.69949e-11
Gradient: 5 = -2.21576e-10
Gradient: 6 = 2.305e-10
Gradient: 7 = 2.49997e-10
Gradient: 8 = -1.24942e-10
Gradient: 9 = 5.48835e-10
Gradient: 10 = 2.31764e-10
Gradient: 11 = 5.38276e-10
Gradient: 12 = 8.45112e-11
Gradient: 13 = 3.16049e-11
Gradient: 14 = 9.11768e-11
Gradient: 15 = 3.31397e-11
Gradient: 16 = -3.63571e-10
Gradient: 17 = -2.47837e-10
Gradient: 18 = -7.64549e-10
Gradient: 19 = 2.57945e-10
Gradient: 20 = -9.95278e-10
Gradient: 21 = 1.06411e-10
Gradient: 22 = -1.27674e-10
Gradient: 23 = -1.9179e-10
Gradient: 24 = -8.58336e-12
Gradient: 25 = 9.15179e-12
Gradient: 26 = 5.72982e-11
Gradient: 27 = 8.6984e-10
Gradient: 28 = -1.01457e-09
Gradient: 29 = -8.52447e-11
Gradient: 30 = 8.91818e-11
Gradient: 31 = -2.84217e-11
Gradient: 32 = 2.0168e-10
Gradient: 33 = 2.49202e-10
Gradient: 34 = -1.96394e-10
Gradient: 35 = -1.80307e-10
Gradient: 36 = 1.86779e-09
Gradient: 37 = 1.87155e-09
Gradient: 38 = -2.26624e-09
Gradient: 39 = 2.35218e-10
Gradient: 40 = 1.46471e-11
Gradient: 41 = -2.27942e-10
Gradient: 42 = -2.68244e-10
Gradient: 43 = -2.43176e-10
Gradient: 44 = -7.46809e-10
Gradient: 45 = -4.11568e-12
Gradient: 46 = -3.10617e-10
Gradient: 47 = -7.52627e-10
Gradient: 48 = 7.25835e-11
Gradient: 49 = -2.48065e-10
Gradient: 50 = 3.16618e-10
Gradient: 51 = -7.91829e-11
Gradient: 52 = 1.70587e-10
Gradient: 53 = -7.64771e-10
Gradient: 54 = 3.3683e-10
Gradient: 55 = 2.27222e-10
Gradient: 56 = 8.67743e-10
Gradient: 57 = 2.59888e-10
Gradient: 58 = -2.11397e-10
Gradient: 59 = 5.36261e-10
Gradient: 60 = -4.04157e-11
Gradient: 61 = -1.27784e-10
Gradient: 62 = 2.42608e-10
Gradient: 63 = -2.38562e-10
Gradient: 64 = -1.83176e-10
Gradient: 65 = 4.78673e-10
Gradient: 66 = -1.13338e-10
Gradient: 67 = 9.004e-11
Gradient: 68 = -3.45665e-10
Gradient: 69 = -2.39879e-11
Gradient: 70 = -1.10674e-10
Gradient: 71 = -7.67386e-11
Gradient: 72 = 8.38288e-11
Gradient: 73 = -7.84786e-10
Gradient: 74 = -9.8586e-10
Gradient: 75 = -4.718e-11
Gradient: 76 = -3.76758e-10
Gradient: 77 = -8.385e-11
Gradient: 78 = -5.00222e-12
Gradient: 79 = -4.60375e-10
Gradient: 80 = -3.0127e-12
Gradient: 81 = 4.51483e-10
Gradient: 82 = 1.06404e-09
Gradient: 83 = 1.76253e-10
Gradient: 84 = 2.44995e-10
Gradient: 85 = 8.52651e-12
Gradient: 86 = 1.90171e-10
Gradient: 87 = -1.00044e-10
Gradient: 88 = -1.67574e-10
Gradient: 89 = 1.37788e-10
Gradient: 90 = -1.09824e-09
Gradient: 91 = 9.99159e-10
Gradient: 92 = 3.14531e-10
Gradient: 93 = -3.31511e-10
Gradient: 94 = -1.3199e-10
Gradient: 95 = -4.33604e-10
Gradient: 96 = -3.88241e-10
Gradient: 97 = -1.48304e-10
Gradient: 98 = -2.84729e-10
Gradient: 99 = -1.29254e-09
Gradient: 100 = -2.94246e-10
Gradient: 101 = 1.69445e-10
Gradient: 102 = -1.97019e-10
Gradient: 103 = -2.79044e-10
Gradient: 104 = 1.30356e-10
Gradient: 105 = -3.22245e-10
Gradient: 106 = 5.42286e-11
Gradient: 107 = 3.09797e-10
Gradient: 108 = -1.23467e-10
Gradient: 109 = 6.59871e-10
Gradient: 110 = -1.32352e-09
Gradient: 111 = -2.02931e-11
Gradient: 112 = -1.30058e-10
Gradient: 113 = 1.39489e-10
Gradient: 114 = 6.74163e-11
Gradient: 115 = -4.10807e-10
Gradient: 116 = 2.43745e-10
Gradient: 117 = -4.1018e-10
Gradient: 118 = -6.43882e-10
Gradient: 119 = -7.19166e-10
Gradient: 120 = -2.38515e-10
Gradient: 121 = -1.88152e-11
Gradient: 122 = -2.21639e-10
Gradient: 123 = 6.28688e-11
Gradient: 124 = 3.84944e-10
Gradient: 125 = -3.17414e-10
Gradient: 126 = 7.7304e-10
Gradient: 127 = -7.43097e-10
Gradient: 128 = -1.23839e-09
Gradient: 129 = -6.16751e-11
Gradient: 130 = -1.98042e-10
Gradient: 131 = -1.60116e-10
Gradient: 132 = -2.23963e-11
Gradient: 133 = -2.20098e-10
Gradient: 134 = 6.83826e-11
Gradient: 135 = 1.20656e-09
Gradient: 136 = 1.8588e-09
Gradient: 137 = 3.76234e-10
Gradient: 138 = -9.3678e-11
Gradient: 139 = -4.18709e-10
Gradient: 140 = 1.44525e-10
Gradient: 141 = -2.60457e-10
Gradient: 142 = 5.35465e-11
Gradient: 143 = 3.01782e-10
Gradient: 144 = 1.52952e-10
Gradient: 145 = 5.14704e-10
Gradient: 146 = -2.57119e-10
Gradient: 147 = -1.68686e-11
Gradient: 148 = 1.2966e-10
Gradient: 149 = -1.95996e-10
Gradient: 150 = -1.24885e-10
Gradient: 151 = -2.08161e-10
Gradient: 152 = 1.30967e-10
Gradient: 153 = -2.17333e-10
Gradient: 154 = -2.08456e-10
Gradient: 155 = 5.03251e-10
Gradient: 156 = 2.52667e-10
Gradient: 157 = 3.63968e-10
Gradient: 158 = 2.41016e-10
Gradient: 159 = -2.92687e-10
Gradient: 160 = -1.30512e-10
Gradient: 161 = -1.74055e-10
Gradient: 162 = 4.45742e-10
Gradient: 163 = 3.40261e-11
Gradient: 164 = 8.1551e-10
Gradient: 165 = 2.39879e-11
Gradient: 166 = 6.33285e-11
Gradient: 167 = 1.72804e-10
Gradient: 168 = -3.29692e-12
Gradient: 169 = -1.51147e-10
Gradient: 170 = -7.59428e-11
Gradient: 171 = -1.24202e-10
Gradient: 172 = -7.23151e-10
Gradient: 173 = 1.16453e-11
Gradient: 174 = 8.67992e-12
Gradient: 175 = 1.93381e-10
Gradient: 176 = 1.87697e-10
Gradient: 177 = -3.09001e-10
Gradient: 178 = 6.95763e-11
Gradient: 179 = 1.3074e-12
Gradient: 180 = -1.9928e-10
Gradient: 181 = 6.56981e-10
Gradient: 182 = -5.18577e-11
Gradient: 183 = 1.00783e-10
Gradient: 184 = -1.04438e-10
Gradient: 185 = -1.91676e-10
Gradient: 186 = -5.69798e-10
Gradient: 187 = -1.75021e-10
Gradient: 188 = 1.1795e-10
Gradient: 189 = -1.06366e-09
Gradient: 190 = 2.4143e-10
Gradient: 191 = -3.2509e-10
Gradient: 192 = -8.9067e-11
Gradient: 193 = 2.79044e-10
Gradient: 194 = -1.48589e-10
Gradient: 195 = 1.15961e-10
Gradient: 196 = 1.67233e-10
Gradient: 197 = -3.24007e-12
Gradient: 198 = 2.75283e-10
Gradient: 199 = 5.59995e-10
Gradient: 200 = -1.66246e-10
Gradient: 201 = 6.06292e-10
Gradient: 202 = -6.10079e-11
Gradient: 203 = -1.33014e-10
Gradient: 204 = -3.92561e-10
Gradient: 205 = -1.06922e-10
Gradient: 206 = -2.15437e-10
Gradient: 207 = 3.18392e-10
Gradient: 208 = -7.16203e-10
Gradient: 209 = -2.7351e-10
Gradient: 210 = -7.28733e-11
Gradient: 211 = -1.65571e-10
Gradient: 212 = 1.59616e-10
Gradient: 213 = 1.43586e-10
Gradient: 214 = -4.01542e-10
Gradient: 215 = 2.16005e-12
Gradient: 216 = 2.7443e-11
Gradient: 217 = -8.18642e-11
Gradient: 218 = 7.11038e-11
Gradient: 219 = 6.05665e-11
Gradient: 220 = 8.45039e-10
Gradient: 221 = -1.27142e-09
Gradient: 222 = 1.72035e-10
Gradient: 223 = 3.76678e-11
Gradient: 224 = -3.98086e-10
Gradient: 225 = -1.37719e-09
Gradient: 226 = -3.00089e-10
Gradient: 227 = 1.65528e-10
Gradient: 228 = 5.2714e-10
Gradient: 229 = -6.91559e-10
Gradient: 230 = -5.15334e-11
Gradient: 231 = -2.21319e-09
Gradient: 232 = 1.4078e-10
Gradient: 233 = 9.22101e-10
Gradient: 234 = 2.27842e-10
Gradient: 235 = 2.50028e-10
Gradient: 236 = 3.6713e-10
Gradient: 237 = 3.18158e-10
Gradient: 238 = -2.76534e-11
Gradient: 239 = 8.84471e-12
Gradient: 240 = -2.06056e-10
Gradient: 241 = 1.38628e-10
Gradient: 242 = -3.10414e-10
Gradient: 243 = -1.24562e-09
Gradient: 244 = -2.33355e-09
Gradient: 245 = -1.43293e-09
Gradient: 246 = -8.89851e-10
Gradient: 247 = -4.99133e-10
Gradient: 248 = 7.99316e-10
Gradient: 249 = -7.26242e-10
Gradient: 250 = 1.38914e-09
Gradient: 251 = -7.01092e-10
Gradient: 252 = -5.44655e-10
Gradient: 253 = -6.97721e-10
Gradient: 254 = -4.01156e-10
Gradient: 255 = 2.06311e-09
Gradient: 256 = -1.42342e-09
Gradient: 257 = 5.38885e-10
Gradient: 258 = -7.03768e-10
Gradient: 259 = 1.81993e-09
Gradient: 260 = 2.36205e-10
Gradient: 261 = -3.33309e-10
Gradient: 262 = -2.29771e-10
Gradient: 263 = -1.93477e-10
Gradient: 264 = -6.61875e-10
Gradient: 265 = -1.68781e-10
Gradient: 266 = -3.20656e-10
Gradient: 267 = 1.32293e-10
Gradient: 268 = 3.07867e-10
Gradient: 269 = -6.29446e-10
Gradient: 270 = 3.08162e-10
Gradient: 271 = 1.22932e-09
Gradient: 272 = -4.02218e-10
Gradient: 273 = -1.05217e-10
Gradient: 274 = 5.24369e-10
Gradient: 275 = -4.50075e-11
Gradient: 276 = 5.05883e-10
Gradient: 277 = -3.70402e-11
Gradient: 278 = -7.9286e-10
Gradient: 279 = -6.39089e-10
Gradient: 280 = 1.59153e-09
Gradient: 281 = 1.26927e-09
Gradient: 282 = -1.92528e-10
Gradient: 283 = 3.50856e-10
Gradient: 284 = -2.38728e-10
Gradient: 285 = -6.88398e-10
Gradient: 286 = 1.37227e-10
Gradient: 287 = -8.75461e-11
Gradient: 288 = 2.6057e-10
Gradient: 289 = -7.40425e-10
Gradient: 290 = 4.90047e-10
Gradient: 291 = 1.25226e-10
Gradient: 292 = 1.20224e-10
Gradient: 293 = -2.1987e-10
Gradient: 294 = -4.04348e-10
Gradient: 295 = 7.63293e-10
Gradient: 296 = 2.35787e-10
Gradient: 297 = 6.41251e-10
Gradient: 298 = 1.05916e-09
Gradient: 299 = 3.80965e-10
Gradient: 300 = -1.01068e-10
Gradient: 301 = 1.66202e-10
Gradient: 302 = -4.98517e-11
Gradient: 303 = 2.66141e-10
Gradient: 304 = -1.09935e-10
Gradient: 305 = -1.87015e-10
Gradient: 306 = -5.47115e-10
Gradient: 307 = 8.21956e-11
Gradient: 308 = 6.06406e-10
Gradient: 309 = -6.30962e-10
Gradient: 310 = -1.58536e-10
Gradient: 311 = -1.00954e-10
Gradient: 312 = 5.96287e-10
Gradient: 313 = 4.39813e-10
Gradient: 314 = -5.00222e-12
Gradient: 315 = 2.05773e-11
Gradient: 316 = 4.78053e-11
Gradient: 317 = -2.31921e-10
Gradient: 318 = -3.43111e-10
Gradient: 319 = -6.33236e-10
Gradient: 320 = 1.31934e-10
Gradient: 321 = 3.52998e-11
Gradient: 322 = -1.71156e-10
Gradient: 323 = -7.16227e-11
Gradient: 324 = 2.62276e-10
Gradient: 325 = -6.55808e-10
Gradient: 326 = 1.78375e-10
Gradient: 327 = -1.29262e-10
Gradient: 328 = 3.34239e-10
Gradient: 329 = -3.98472e-10
Gradient: 330 = -4.76767e-10
Gradient: 331 = -1.98156e-10
Gradient: 332 = 2.06569e-10
Gradient: 333 = 3.85398e-10
Gradient: 334 = 4.1149e-10
Gradient: 335 = 2.73531e-10
Gradient: 336 = 5.54394e-10
Gradient: 337 = 5.96856e-11
Gradient: 338 = 7.76759e-10
Gradient: 339 = -5.7446e-10
Gradient: 340 = 3.28782e-10
Gradient: 341 = -1.96337e-10
Gradient: 342 = 3.09228e-11
Gradient: 343 = -8.00298e-10
Gradient: 344 = -2.42219e-10
Gradient: 345 = -8.41851e-11
Gradient: 346 = -6.2289e-10
Gradient: 347 = 3.07125e-10
Gradient: 348 = -4.94538e-11
Gradient: 349 = -1.5541e-10
Gradient: 350 = -4.26699e-10
Gradient: 351 = -1.6621e-10
Gradient: 352 = -9.44738e-11
Gradient: 353 = -2.94847e-10
Gradient: 354 = -8.0604e-11
Gradient: 355 = -6.76437e-12
Gradient: 356 = -1.41162e-10
Gradient: 357 = -1.75135e-10
Gradient: 358 = -1.89857e-11
Gradient: 359 = 8.53049e-10
Gradient: 360 = -2.36469e-10
Gradient: 361 = -3.97904e-10
Gradient: 362 = -1.14431e-10
Gradient: 363 = -9.56561e-10
Gradient: 364 = 3.79885e-10
Gradient: 365 = 1.58821e-10
Gradient: 366 = -2.68187e-10
Gradient: 367 = -1.65016e-10
Gradient: 368 = -9.65141e-10
Gradient: 369 = -2.359e-11
Gradient: 370 = 8.54584e-10
Gradient: 371 = -1.48816e-10
Gradient: 372 = 9.69749e-11
Gradient: 373 = 3.36286e-10
Gradient: 374 = -4.9282e-10
Gradient: 375 = 2.28852e-10
Gradient: 376 = 5.37057e-10
Gradient: 377 = -1.29376e-10
Gradient: 378 = -2.09184e-10
Gradient: 379 = -6.29825e-11
Gradient: 380 = 3.27728e-10
Gradient: 381 = 7.91829e-11
Gradient: 382 = 2.03841e-10
Gradient: 383 = 1.8531e-11
Gradient: 384 = -8.8142e-11
Gradient: 385 = -4.26553e-10
Gradient: 386 = 4.10409e-10
Gradient: 387 = -4.65946e-10
Gradient: 388 = 3.75167e-12
Gradient: 389 = 3.85057e-10
Gradient: 390 = 9.20672e-11
Gradient: 391 = -1.26136e-10
Gradient: 392 = -3.16618e-10
Gradient: 393 = 3.29692e-11
Gradient: 394 = -2.77964e-10
Gradient: 395 = -2.89901e-11
Gradient: 396 = -1.40346e-10
Gradient: 397 = 1.64198e-10
Gradient: 398 = 1.22441e-10
Gradient: 399 = -9.44283e-10
Gradient: 400 = -1.45809e-09
Gradient: 401 = -3.14685e-10
Gradient: 402 = 4.33346e-10
Gradient: 403 = 9.05573e-10
Gradient: 404 = -4.27463e-11
Gradient: 405 = 3.43107e-10
Gradient: 406 = 2.19757e-10
Gradient: 407 = 1.74168e-10
Gradient: 408 = 6.11635e-11
Gradient: 409 = -1.71351e-12
Gradient: 410 = 6.42558e-10
Gradient: 411 = 1.87924e-10
Gradient: 412 = -4.85443e-11
Gradient: 413 = 4.20357e-10
Gradient: 414 = 2.86114e-11
Gradient: 415 = 6.51426e-11
Gradient: 416 = -2.8183e-10
Gradient: 417 = 1.51203e-11
Gradient: 418 = 1.08571e-10
Gradient: 419 = -7.0844e-10
Gradient: 420 = -7.783e-10
Gradient: 421 = -3.30975e-10
Gradient: 422 = 2.6796e-10
Gradient: 423 = -2.53294e-10
Gradient: 424 = 1.25283e-10
Gradient: 425 = -1.4893e-11
Gradient: 426 = 6.15046e-11
Gradient: 427 = 1.13937e-11
Gradient: 428 = 2.56819e-10
Gradient: 429 = 2.33626e-10
Gradient: 430 = 1.10958e-10
Gradient: 431 = -2.45223e-10
Gradient: 432 = -3.66867e-10
Gradient: 433 = -8.06163e-11
Gradient: 434 = 3.38844e-10
Gradient: 435 = -4.9414e-10
Gradient: 436 = -1.54387e-10
Gradient: 437 = 4.17344e-10
Gradient: 438 = 4.08561e-10
Gradient: 439 = -6.047e-10
Gradient: 440 = -6.47219e-10
Gradient: 441 = -1.59616e-10
Gradient: 442 = 1.00044e-10
Gradient: 443 = 1.30285e-10
Gradient: 444 = 1.14028e-10
Gradient: 445 = -6.72367e-10
Gradient: 446 = 6.45684e-10
Gradient: 447 = 2.59263e-10
Gradient: 448 = -6.0669e-10
Gradient: 449 = -3.27532e-10
Gradient: 450 = -6.06595e-11
Gradient: 451 = -6.58474e-10
Gradient: 452 = -8.66351e-10
Gradient: 453 = -4.10353e-10
Gradient: 454 = 4.85443e-10
Gradient: 455 = 9.00059e-10
Gradient: 456 = -7.9433e-10
Gradient: 457 = 4.44146e-10
Gradient: 458 = 8.29743e-10
Gradient: 459 = -2.63526e-10
Gradient: 460 = -4.56225e-10
Gradient: 461 = 1.12379e-09
Gradient: 462 = 1.05396e-09
Gradient: 463 = -2.80693e-10
Gradient: 464 = -1.2227e-10
Gradient: 465 = 1.67347e-10
Gradient: 466 = -6.69502e-10
Gradient: 467 = 1.0732e-09
Gradient: 468 = -8.49468e-10
Gradient: 469 = 5.75383e-10
Gradient: 470 = -9.65088e-10
Gradient: 471 = -8.80505e-11
Gradient: 472 = -6.3153e-10
Gradient: 473 = -6.79393e-10
Gradient: 474 = 5.95521e-10
Gradient: 475 = -2.43631e-10
Gradient: 476 = 6.43638e-10
Gradient: 477 = -2.25441e-10
Gradient: 478 = -3.98529e-10
Gradient: 479 = 5.20458e-10
Gradient: 480 = -1.30967e-10
Gradient: 481 = 4.88853e-10
Gradient: 482 = 5.74469e-10
Gradient: 483 = 2.52271e-10
Gradient: 484 = 3.22586e-10
Gradient: 485 = -8.69704e-11
Gradient: 486 = -3.66072e-10
Gradient: 487 = -1.87129e-10
Gradient: 488 = -3.2207e-10
Gradient: 489 = 7.28846e-10
Gradient: 490 = 4.81577e-10
Gradient: 491 = 4.1365e-10
Gradient: 492 = 2.14243e-10
Gradient: 493 = -1.09708e-10
Gradient: 494 = 6.86849e-10
Gradient: 495 = 5.13069e-10
Gradient: 496 = -1.43132e-10
Gradient: 497 = -1.93722e-10
Gradient: 498 = 3.33557e-10
Gradient: 499 = 7.3328e-10
Gradient: 500 = 2.61637e-10
Gradient: 501 = 8.69704e-11
Gradient: 502 = -6.0561e-10
Gradient: 503 = -5.39899e-10
Gradient: 504 = 5.9174e-11
Gradient: 505 = -2.18279e-10
Gradient: 506 = -3.9929e-10
Gradient: 507 = 4.65548e-10
Gradient: 508 = 8.1684e-10
Gradient: 509 = -5.38535e-10
Gradient: 510 = 3.30829e-10
Gradient: 511 = -1.89459e-10
Gradient: 512 = 3.95655e-10
Gradient: 513 = 3.0542e-10
Gradient: 514 = -7.81256e-10
Gradient: 515 = 1.9719e-10
Gradient: 516 = 7.46923e-10
Gradient: 517 = 1.60185e-10
Gradient: 518 = 7.85258e-10
Gradient: 519 = -5.95492e-10
Gradient: 520 = 4.06544e-10
Gradient: 521 = 4.03361e-10
Gradient: 522 = 4.42697e-10
Gradient: 523 = 6.85873e-10
Gradient: 524 = -2.98675e-10
Gradient: 525 = 8.26901e-10
Gradient: 526 = -7.1168e-10
Gradient: 527 = -4.41958e-10
Gradient: 528 = 2.63299e-10
Gradient: 529 = -6.46423e-10
Gradient: 530 = 1.80307e-10
Gradient: 531 = -3.93811e-10
Gradient: 532 = 3.80851e-10
Gradient: 533 = -1.75646e-10
Gradient: 534 = -1.20449e-09
Gradient: 535 = -6.75016e-10
Gradient: 536 = 2.95586e-12
Gradient: 537 = 7.42659e-10
Gradient: 538 = 9.20977e-10
Gradient: 539 = 9.28821e-10
Gradient: 540 = 2.36753e-10
Gradient: 541 = -9.78579e-10
Gradient: 542 = -5.53655e-11
Gradient: 543 = 1.08116e-10
Gradient: 544 = -2.37719e-10
Gradient: 545 = 2.13731e-11
Gradient: 546 = 1.19741e-10
Gradient: 547 = -3.07978e-10
Gradient: 548 = -3.24349e-10
Gradient: 549 = -3.9114e-10
Gradient: 550 = 4.57931e-10
Gradient: 551 = 9.45647e-10
Gradient: 552 = -1.25095e-09
Gradient: 553 = -3.75539e-11
Gradient: 554 = 1.62117e-10
Gradient: 555 = 6.07542e-10
Gradient: 556 = 4.89706e-10
Gradient: 557 = -3.24803e-10
Gradient: 558 = 6.97076e-10
Gradient: 559 = -4.33886e-10
Gradient: 560 = 5.60476e-10
Gradient: 561 = 4.30703e-10
Gradient: 562 = 4.04043e-10
Gradient: 563 = -2.63469e-10
Gradient: 564 = -7.78755e-10
Gradient: 565 = -5.53341e-10
Gradient: 566 = 3.94039e-10
Gradient: 567 = 4.9738e-10
Gradient: 568 = 7.26459e-11
Gradient: 569 = 3.30829e-11
Gradient: 570 = 2.66141e-10
Gradient: 571 = -6.5839e-10
Gradient: 572 = -2.65004e-10
Gradient: 573 = -5.55929e-11
Gradient: 574 = 9.70033e-10
Gradient: 575 = 1.08059e-10
Gradient: 576 = -6.52108e-10
Gradient: 577 = 6.52383e-10
Gradient: 578 = -9.44965e-10
Gradient: 579 = -7.64373e-10
Gradient: 580 = -1.55012e-10
Gradient: 581 = 6.37442e-10
Gradient: 582 = -2.11338e-10
Gradient: 583 = -1.5209e-09
Gradient: 584 = -3.53964e-10
Gradient: 585 = -2.02988e-10
Gradient: 586 = -8.75332e-10
Gradient: 587 = -3.80169e-10
Gradient: 588 = 9.84528e-11
Gradient: 589 = -5.57544e-10
Gradient: 590 = 1.41426e-10
Gradient: 591 = -8.62258e-10
Gradient: 592 = 1.46656e-10
Gradient: 593 = 4.2246e-10
Gradient: 594 = 2.5876e-10
Gradient: 595 = 4.82032e-11
Gradient: 596 = -1.31894e-09
Gradient: 597 = 5.68434e-10
Gradient: 598 = -3.07637e-10
Gradient: 599 = 4.44516e-10
Gradient: 600 = -1.57399e-09
Gradient: 601 = -1.29497e-09
Gradient: 602 = 1.98895e-10
Gradient: 603 = -4.70493e-10
Gradient: 604 = -8.11724e-10
Gradient: 605 = 3.56295e-10
Gradient: 606 = -2.83633e-10
Gradient: 607 = 6.47447e-10
Gradient: 608 = -8.60041e-11
Gradient: 609 = -1.0283e-10
Gradient: 610 = 4.28031e-11
Gradient: 611 = 8.26503e-11
Gradient: 612 = -4.71005e-10
Gradient: 613 = -2.1836e-10
Gradient: 614 = -1.13232e-10
Gradient: 615 = -1.17097e-10
Gradient: 616 = -4.99654e-10
Gradient: 617 = -1.37334e-10
Gradient: 618 = -3.93098e-10
Gradient: 619 = 9.17794e-10
Gradient: 620 = -3.2918e-10
Gradient: 621 = -5.70822e-10
Gradient: 622 = -2.29932e-10
Gradient: 623 = -4.74074e-10
Gradient: 624 = -6.01005e-10
Gradient: 625 = -4.02451e-11
Gradient: 626 = -7.72363e-11
Gradient: 627 = 9.99194e-10
Gradient: 628 = -6.80416e-11
Gradient: 629 = -2.48349e-10
Gradient: 630 = -6.16183e-11
Gradient: 631 = 8.19341e-10
Gradient: 632 = 4.1458e-10
Gradient: 633 = -6.80984e-11
Gradient: 634 = 7.09747e-10
Gradient: 635 = -8.56517e-10
Gradient: 636 = -7.40101e-11
Gradient: 637 = -2.89447e-10
Gradient: 638 = 2.88103e-10
Gradient: 639 = -5.08066e-10
Gradient: 640 = 4.90559e-11
Gradient: 641 = 5.53428e-10
Gradient: 642 = 1.41767e-10
Gradient: 643 = -9.33369e-11
Gradient: 644 = -2.75149e-10
Gradient: 645 = 1.5109e-10
Gradient: 646 = -4.30646e-10
Gradient: 647 = -9.87086e-10
Gradient: 648 = 4.92605e-10
Gradient: 649 = 3.54817e-10
Gradient: 650 = -2.47485e-10
Gradient: 651 = 1.2426e-09
Gradient: 652 = -3.55215e-10
Gradient: 653 = -5.18185e-10
Gradient: 654 = -2.31353e-10
Gradient: 655 = -1.22213e-10
Gradient: 656 = 1.29237e-10
Gradient: 657 = -4.02338e-10
Gradient: 658 = -9.93055e-10
Gradient: 659 = 2.49202e-10
Gradient: 660 = -9.15747e-11
Gradient: 661 = -1.13448e-09
Gradient: 662 = 2.60409e-10
Gradient: 663 = -3.796e-10
Gradient: 664 = -8.90338e-10
Gradient: 665 = 5.90376e-10
[...]
	Block[ 2]            0.00000 [K]
	Block[ 3]            0.00000 [K]
	Block[ 4]            0.00000 [K]
	------------------------------------------------------------------------------
	Average              0.00000 [K] +/-            0.00000 [K]

Average Adsorbate Bend-Bend cross term energy:
==============================================
	Block[ 0]            0.00000 [K]
	Block[ 1]            0.00000 [K]
	Block[ 2]            0.00000 [K]
	Block[ 3]            0.00000 [K]
	Block[ 4]            0.00000 [K]
	------------------------------------------------------------------------------
	Average              0.00000 [K] +/-            0.00000 [K]

Average Adsorbate Bond-Bend cross term energy:
=================================================
	Block[ 0]            0.00000 [K]
	Block[ 1]            0.00000 [K]
	Block[ 2]            0.00000 [K]
	Block[ 3]            0.00000 [K]
	Block[ 4]            0.00000 [K]
	------------------------------------------------------------------------------
	Average              0.00000 [K] +/-            0.00000 [K]

Average Adsorbate Bond-Torsion cross term energy:
=================================================
	Block[ 0]            0.00000 [K]
	Block[ 1]            0.00000 [K]
	Block[ 2]            0.00000 [K]
	Block[ 3]            0.00000 [K]
	Block[ 4]            0.00000 [K]
	------------------------------------------------------------------------------
	Average              0.00000 [K] +/-            0.00000 [K]

Average Adsorbate Bend-Torsion cross term energy:
=================================================
	Block[ 0]            0.00000 [K]
	Block[ 1]            0.00000 [K]
	Block[ 2]            0.00000 [K]
	Block[ 3]            0.00000 [K]
	Block[ 4]            0.00000 [K]
	------------------------------------------------------------------------------
	Average              0.00000 [K] +/-            0.00000 [K]

Average Adsorbate Intra Van der Waals energy:
=============================================
	Block[ 0]            0.00000 [K]
	Block[ 1]            0.00000 [K]
	Block[ 2]            0.00000 [K]
	Block[ 3]            0.00000 [K]
	Block[ 4]            0.00000 [K]
	------------------------------------------------------------------------------
	Average              0.00000 [K] +/-            0.00000 [K]

Average Adsorbate Intra charge-charge Coulomb energy:
=======================================
	Block[ 0]            0.00000 [K]
	Block[ 1]            0.00000 [K]
	Block[ 2]            0.00000 [K]
	Block[ 3]            0.00000 [K]
	Block[ 4]            0.00000 [K]
	------------------------------------------------------------------------------
	Average              0.00000 [K] +/-            0.00000 [K]

Average Adsorbate Intra charge-bonddipole Coulomb energy:
=======================================
	Block[ 0]            0.00000 [K]
	Block[ 1]            0.00000 [K]
	Block[ 2]            0.00000 [K]
	Block[ 3]            0.00000 [K]
	Block[ 4]            0.00000 [K]
	------------------------------------------------------------------------------
	Average              0.00000 [K] +/-            0.00000 [K]

Average Adsorbate Intra bonddipole-bonddipole Coulomb energy:
=======================================
	Block[ 0]            0.00000 [K]
	Block[ 1]            0.00000 [K]
	Block[ 2]            0.00000 [K]
	Block[ 3]            0.00000 [K]
	Block[ 4]            0.00000 [K]
	------------------------------------------------------------------------------
	Average              0.00000 [K] +/-            0.00000 [K]

Average Cation Bond stretch energy:
=================================
	Block[ 0]            0.00000 [K]
	Block[ 1]            0.00000 [K]
	Block[ 2]            0.00000 [K]
	Block[ 3]            0.00000 [K]
	Block[ 4]            0.00000 [K]
	------------------------------------------------------------------------------
	Average              0.00000 [K] +/-            0.00000 [K]

Average Cation UreyBradley stretch energy:
==========================================
	Block[ 0]            0.00000 [K]
	Block[ 1]            0.00000 [K]
	Block[ 2]            0.00000 [K]
	Block[ 3]            0.00000 [K]
	Block[ 4]            0.00000 [K]
	------------------------------------------------------------------------------
	Average              0.00000 [K] +/-            0.00000 [K]

Average Cation Bend angle energy:
=================================
	Block[ 0]            0.00000 [K]
	Block[ 1]            0.00000 [K]
	Block[ 2]            0.00000 [K]
	Block[ 3]            0.00000 [K]
	Block[ 4]            0.00000 [K]
	------------------------------------------------------------------------------
	Average              0.00000 [K] +/-            0.00000 [K]

Average Cation Bend angle inversion energy:
===========================================
	Block[ 0]            0.00000 [K]
	Block[ 1]            0.00000 [K]
	Block[ 2]            0.00000 [K]
	Block[ 3]            0.00000 [K]
	Block[ 4]            0.00000 [K]
	------------------------------------------------------------------------------
	Average              0.00000 [K] +/-            0.00000 [K]

Average Cation Torsion energy:
==============================
	Block[ 0]            0.00000 [K]
	Block[ 1]            0.00000 [K]
	Block[ 2]            0.00000 [K]
	Block[ 3]            0.00000 [K]
	Block[ 4]            0.00000 [K]
	------------------------------------------------------------------------------
	Average              0.00000 [K] +/-            0.00000 [K]

Average Cation Improper Torsion energy:
=======================================
	Block[ 0]            0.00000 [K]
	Block[ 1]            0.00000 [K]
	Block[ 2]            0.00000 [K]
	Block[ 3]            0.00000 [K]
	Block[ 4]            0.00000 [K]
	------------------------------------------------------------------------------
	Average              0.00000 [K] +/-            0.00000 [K]

Average Cation Bond-Bond cross term energy:
=================================================
	Block[ 0]            0.00000 [K]
	Block[ 1]            0.00000 [K]
	Block[ 2]            0.00000 [K]
	Block[ 3]            0.00000 [K]
	Block[ 4]            0.00000 [K]
	------------------------------------------------------------------------------
	Average              0.00000 [K] +/-            0.00000 [K]

Average Cation Bend-Bend cross term energy:
===========================================
	Block[ 0]            0.00000 [K]
	Block[ 1]            0.00000 [K]
	Block[ 2]            0.00000 [K]
	Block[ 3]            0.00000 [K]
	Block[ 4]            0.00000 [K]
	------------------------------------------------------------------------------
	Average              0.00000 [K] +/-            0.00000 [K]

Average Cation Bond-Bend cross term energy:
==============================================
	Block[ 0]            0.00000 [K]
	Block[ 1]            0.00000 [K]
	Block[ 2]            0.00000 [K]
	Block[ 3]            0.00000 [K]
	Block[ 4]            0.00000 [K]
	------------------------------------------------------------------------------
	Average              0.00000 [K] +/-            0.00000 [K]

Average Cation Bond-Torsion cross term energy:
==============================================
	Block[ 0]            0.00000 [K]
	Block[ 1]            0.00000 [K]
	Block[ 2]            0.00000 [K]
	Block[ 3]            0.00000 [K]
	Block[ 4]            0.00000 [K]
	------------------------------------------------------------------------------
	Average              0.00000 [K] +/-            0.00000 [K]

Average Cation Bend-Torsion cross term energy:
==============================================
	Block[ 0]            0.00000 [K]
	Block[ 1]            0.00000 [K]
	Block[ 2]            0.00000 [K]
	Block[ 3]            0.00000 [K]
	Block[ 4]            0.00000 [K]
	------------------------------------------------------------------------------
	Average              0.00000 [K] +/-            0.00000 [K]

Average Cation Intra Van der Waals energy:
==========================================
	Block[ 0]            0.00000 [K]
	Block[ 1]            0.00000 [K]
	Block[ 2]            0.00000 [K]
	Block[ 3]            0.00000 [K]
	Block[ 4]            0.00000 [K]
	------------------------------------------------------------------------------
	Average              0.00000 [K] +/-            0.00000 [K]

Average Cation Intra charge-charge Coulomb energy:
====================================
	Block[ 0]            0.00000 [K]
	Block[ 1]            0.00000 [K]
	Block[ 2]            0.00000 [K]
	Block[ 3]            0.00000 [K]
	Block[ 4]            0.00000 [K]
	------------------------------------------------------------------------------
	Average              0.00000 [K] +/-            0.00000 [K]

Average Cation Intra charge-bonddipole Coulomb energy:
====================================
	Block[ 0]            0.00000 [K]
	Block[ 1]            0.00000 [K]
	Block[ 2]            0.00000 [K]
	Block[ 3]            0.00000 [K]
	Block[ 4]            0.00000 [K]
	------------------------------------------------------------------------------
	Average              0.00000 [K] +/-            0.00000 [K]

Average Cation Intra bonddipole-bonddipole Coulomb energy:
====================================
	Block[ 0]            0.00000 [K]
	Block[ 1]            0.00000 [K]
	Block[ 2]            0.00000 [K]
	Block[ 3]            0.00000 [K]
	Block[ 4]            0.00000 [K]
	------------------------------------------------------------------------------
	Average              0.00000 [K] +/-            0.00000 [K]

Average Host-Host energy:
=========================
	Block[ 0] 0.00000            Van der Waals: 0.00000            Coulomb: 0.00000            [K]
	Block[ 1] 0.00000            Van der Waals: 0.00000            Coulomb: 0.00000            [K]
	Block[ 2] 0.00000            Van der Waals: 0.00000            Coulomb: 0.00000            [K]
	Block[ 3] 0.00000            Van der Waals: 0.00000            Coulomb: 0.00000            [K]
	Block[ 4] 0.00000            Van der Waals: 0.00000            Coulomb: 0.00000            [K]
	------------------------------------------------------------------------------
	Average   0.00000            Van der Waals: 0.000000           Coulomb: 0.00000            [K]
	      +/- 0.00000                       +/- 0.000000                +/- 0.00000            [K]

Average Adsorbate-Adsorbate energy:
===================================
	Block[ 0] 0.00000            Van der Waals: 0.00000            Coulomb: 0.00000            [K]
	Block[ 1] 0.00000            Van der Waals: 0.00000            Coulomb: 0.00000            [K]
	Block[ 2] 0.00000            Van der Waals: 0.00000            Coulomb: 0.00000            [K]
	Block[ 3] 0.00000            Van der Waals: 0.00000            Coulomb: 0.00000            [K]
	Block[ 4] 0.00000            Van der Waals: 0.00000            Coulomb: 0.00000            [K]
	------------------------------------------------------------------------------
	Average   0.00000            Van der Waals: 0.000000           Coulomb: 0.00000            [K]
	      +/- 0.00000                       +/- 0.000000                +/- 0.00000            [K]

Average Cation-Cation energy:
=============================
	Block[ 0] 0.00000            Van der Waals: 0.00000            Coulomb: 0.00000            [K]
	Block[ 1] 0.00000            Van der Waals: 0.00000            Coulomb: 0.00000            [K]
	Block[ 2] 0.00000            Van der Waals: 0.00000            Coulomb: 0.00000            [K]
	Block[ 3] 0.00000            Van der Waals: 0.00000            Coulomb: 0.00000            [K]
	Block[ 4] 0.00000            Van der Waals: 0.00000            Coulomb: 0.00000            [K]
	------------------------------------------------------------------------------
	Average   0.00000            Van der Waals: 0.000000           Coulomb: 0.00000            [K]
	      +/- 0.00000                       +/- 0.000000                +/- 0.00000            [K]

Average Host-Adsorbate energy:
==============================
	Block[ 0] 0.00000            Van der Waals: 0.00000            Coulomb: 0.00000            [K]
	Block[ 1] 0.00000            Van der Waals: 0.00000            Coulomb: 0.00000            [K]
	Block[ 2] 0.00000            Van der Waals: 0.00000            Coulomb: 0.00000            [K]
	Block[ 3] 0.00000            Van der Waals: 0.00000            Coulomb: 0.00000            [K]
	Block[ 4] 0.00000            Van der Waals: 0.00000            Coulomb: 0.00000            [K]
	------------------------------------------------------------------------------
	Average   0.00000            Van der Waals: 0.000000           Coulomb: 0.00000            [K]
	      +/- 0.00000                       +/- 0.000000                +/- 0.00000            [K]

Average Host-Cation energy:
===========================
	Block[ 0] 0.00000            Van der Waals: 0.00000            Coulomb: 0.00000            [K]
	Block[ 1] 0.00000            Van der Waals: 0.00000            Coulomb: 0.00000            [K]
	Block[ 2] 0.00000            Van der Waals: 0.00000            Coulomb: 0.00000            [K]
	Block[ 3] 0.00000            Van der Waals: 0.00000            Coulomb: 0.00000            [K]
	Block[ 4] 0.00000            Van der Waals: 0.00000            Coulomb: 0.00000            [K]
	------------------------------------------------------------------------------
	Average   0.00000            Van der Waals: 0.000000           Coulomb: 0.00000            [K]
	      +/- 0.00000                       +/- 0.000000                +/- 0.00000            [K]

Average Adsorbate-Cation energy:
================================
	Block[ 0] 0.00000            Van der Waals: 0.00000            Coulomb: 0.00000            [K]
	Block[ 1] 0.00000            Van der Waals: 0.00000            Coulomb: 0.00000            [K]
	Block[ 2] 0.00000            Van der Waals: 0.00000            Coulomb: 0.00000            [K]
	Block[ 3] 0.00000            Van der Waals: 0.00000            Coulomb: 0.00000            [K]
	Block[ 4] 0.00000            Van der Waals: 0.00000            Coulomb: 0.00000            [K]
	------------------------------------------------------------------------------
	Average   0.00000            Van der Waals: 0.000000           Coulomb: 0.00000            [K]
	      +/- 0.00000                       +/- 0.000000                +/- 0.00000            [K]

Host polarization energy:
=======================
	Block[ 0]            0.00000 [K]
	Block[ 1]            0.00000 [K]
	Block[ 2]            0.00000 [K]
	Block[ 3]            0.00000 [K]
	Block[ 4]            0.00000 [K]
	------------------------------------------------------------------------------
	Average              0.00000 [K] +/-            0.00000 [K]

Adsorbate polarization energy:
=======================
	Block[ 0]            0.00000 [K]
	Block[ 1]            0.00000 [K]
	Block[ 2]            0.00000 [K]
	Block[ 3]            0.00000 [K]
	Block[ 4]            0.00000 [K]
	------------------------------------------------------------------------------
	Average              0.00000 [K] +/-            0.00000 [K]

Cation polarization energy:
=======================
	Block[ 0]            0.00000 [K]
	Block[ 1]            0.00000 [K]
	Block[ 2]            0.00000 [K]
	Block[ 3]            0.00000 [K]
	Block[ 4]            0.00000 [K]
	------------------------------------------------------------------------------
	Average              0.00000 [K] +/-            0.00000 [K]

Host back-polarization energy:
=======================
	Block[ 0]            0.00000 [K]
	Block[ 1]            0.00000 [K]
	Block[ 2]            0.00000 [K]
	Block[ 3]            0.00000 [K]
	Block[ 4]            0.00000 [K]
	------------------------------------------------------------------------------
	Average              0.00000 [K] +/-            0.00000 [K]

Adsorbate back-polarization energy:
=======================
	Block[ 0]            0.00000 [K]
	Block[ 1]            0.00000 [K]
	Block[ 2]            0.00000 [K]
	Block[ 3]            0.00000 [K]
	Block[ 4]            0.00000 [K]
	------------------------------------------------------------------------------
	Average              0.00000 [K] +/-            0.00000 [K]

Cation back-polarization energy:
=======================
	Block[ 0]            0.00000 [K]
	Block[ 1]            0.00000 [K]
	Block[ 2]            0.00000 [K]
	Block[ 3]            0.00000 [K]
	Block[ 4]            0.00000 [K]
	------------------------------------------------------------------------------
	Average              0.00000 [K] +/-            0.00000 [K]

Tail-correction energy:
=======================
	Block[ 0]            0.00000 [K]
	Block[ 1]            0.00000 [K]
	Block[ 2]            0.00000 [K]
	Block[ 3]            0.00000 [K]
	Block[ 4]            0.00000 [K]
	------------------------------------------------------------------------------
	Average              0.00000 [K] +/-            0.00000 [K]

Distance-constraints energy:
=======================
	Block[ 0]            0.00000 [K]
	Block[ 1]            0.00000 [K]
	Block[ 2]            0.00000 [K]
	Block[ 3]            0.00000 [K]
	Block[ 4]            0.00000 [K]
	------------------------------------------------------------------------------
	Average              0.00000 [K] +/-            0.00000 [K]

Angle-constraints energy:
=======================
	Block[ 0]            0.00000 [K]
	Block[ 1]            0.00000 [K]
	Block[ 2]            0.00000 [K]
	Block[ 3]            0.00000 [K]
	Block[ 4]            0.00000 [K]
	------------------------------------------------------------------------------
	Average              0.00000 [K] +/-            0.00000 [K]

Dihedral-constraints energy:
=======================
	Block[ 0]            0.00000 [K]
	Block[ 1]            0.00000 [K]
	Block[ 2]            0.00000 [K]
	Block[ 3]            0.00000 [K]
	Block[ 4]            0.00000 [K]
	------------------------------------------------------------------------------
	Average              0.00000 [K] +/-            0.00000 [K]

Inversion-bend constraints energy:
=======================
	Block[ 0]            0.00000 [K]
	Block[ 1]            0.00000 [K]
	Block[ 2]            0.00000 [K]
	Block[ 3]            0.00000 [K]
	Block[ 4]            0.00000 [K]
	------------------------------------------------------------------------------
	Average              0.00000 [K] +/-            0.00000 [K]

Out-of-plane-distance constraints energy:
=======================
	Block[ 0]            0.00000 [K]
	Block[ 1]            0.00000 [K]
	Block[ 2]            0.00000 [K]
	Block[ 3]            0.00000 [K]
	Block[ 4]            0.00000 [K]
	------------------------------------------------------------------------------
	Average              0.00000 [K] +/-            0.00000 [K]

Exclusion-constraints energy:
=======================
	Block[ 0]            0.00000 [K]
	Block[ 1]            0.00000 [K]
	Block[ 2]            0.00000 [K]
	Block[ 3]            0.00000 [K]
	Block[ 4]            0.00000 [K]
	------------------------------------------------------------------------------
	Average              0.00000 [K] +/-            0.00000 [K]

Total energy:
=============
	Block[ 0]            0.00000 [K]
	Block[ 1]            0.00000 [K]
	Block[ 2]            0.00000 [K]
	Block[ 3]            0.00000 [K]
	Block[ 4]            0.00000 [K]
	------------------------------------------------------------------------------
	Average              0.00000 [K] +/-            0.00000 [K]

Number of molecules:
====================


Average Widom Rosenbluth factor:
================================

Average Henry coefficient:
==========================

Average adsorption energy <U_gh>_1-<U_h>_0 obtained from Widom-insertion:
(Note: the total heat of adsorption is dH=<U_gh>_1-<U_h>_0 - <U_g> - RT)
=========================================================================

Simulation finished,  1 warnings

Tue Apr 16 15:00:26 2013
Simulation finished on Tuesday, April 16.
The end time was 03:00 PM.

