# vtk DataFile Version 1.0
Cube
ASCII

DATASET POLYDATA
POINTS 544 float
43.716600 30.783400 30.783400
37.250000 37.250000 37.250000
42.003100 32.496900 19.966000
37.250000 37.250000 16.583700
37.250000 37.250000 8.016200
37.250000 37.250000 157.016200
42.152100 32.347900 4.008100
42.152100 32.347900 153.008100
45.430100 29.069900 6.675200
45.430100 29.069900 155.675200
118.216600 43.716600 30.783400
111.750000 37.250000 37.250000
116.503100 42.003100 19.966000
111.750000 37.250000 16.583700
111.750000 37.250000 8.016200
111.750000 37.250000 157.016200
116.652100 42.152100 4.008100
116.652100 42.152100 153.008100
119.930100 45.430100 6.675200
119.930100 45.430100 155.675200
105.283400 118.216600 30.783400
111.750000 111.750000 37.250000
106.996900 116.503100 19.966000
111.750000 111.750000 16.583700
111.750000 111.750000 8.016200
111.750000 111.750000 157.016200
106.847900 116.652100 4.008100
106.847900 116.652100 153.008100
103.569900 119.930100 6.675200
103.569900 119.930100 155.675200
30.783400 105.283400 30.783400
37.250000 111.750000 37.250000
32.496900 106.996900 19.966000
37.250000 111.750000 16.583700
37.250000 111.750000 8.016200
37.250000 111.750000 157.016200
32.347900 106.847900 4.008100
32.347900 106.847900 153.008100
29.069900 103.569900 6.675200
29.069900 103.569900 155.675200
43.716600 118.216600 118.216600
37.250000 111.750000 111.750000
42.003100 116.503100 129.034000
37.250000 111.750000 132.416300
37.250000 111.750000 -8.016200
37.250000 111.750000 140.983800
42.152100 116.652100 -4.008100
42.152100 116.652100 144.991900
45.430100 119.930100 -6.675200
45.430100 119.930100 142.324800
30.783400 43.716600 118.216600
37.250000 37.250000 111.750000
32.496900 42.003100 129.034000
37.250000 37.250000 132.416300
37.250000 37.250000 -8.016200
37.250000 37.250000 140.983800
32.347900 42.152100 -4.008100
32.347900 42.152100 144.991900
29.069900 45.430100 -6.675200
29.069900 45.430100 142.324800
105.283400 30.783400 118.216600
111.750000 37.250000 111.750000
106.996900 32.496900 129.034000
111.750000 37.250000 132.416300
111.750000 37.250000 -8.016200
111.750000 37.250000 140.983800
106.847900 32.347900 -4.008100
106.847900 32.347900 144.991900
103.569900 29.069900 -6.675200
103.569900 29.069900 142.324800
118.216600 105.283400 118.216600
111.750000 111.750000 111.750000
116.503100 106.996900 129.034000
111.750000 111.750000 132.416300
111.750000 111.750000 -8.016200
111.750000 111.750000 140.983800
116.652100 106.847900 -4.008100
116.652100 106.847900 144.991900
119.930100 103.569900 -6.675200
119.930100 103.569900 142.324800
30.783400 43.716600 30.783400
19.966000 42.003100 32.496900
16.583700 37.250000 37.250000
8.016200 37.250000 37.250000
157.016200 37.250000 37.250000
4.008100 42.152100 32.347900
153.008100 42.152100 32.347900
6.675200 45.430100 29.069900
155.675200 45.430100 29.069900
105.283400 30.783400 30.783400
106.996900 19.966000 32.496900
111.750000 16.583700 37.250000
111.750000 8.016200 37.250000
111.750000 157.016200 37.250000
106.847900 4.008100 32.347900
106.847900 153.008100 32.347900
103.569900 6.675200 29.069900
103.569900 155.675200 29.069900
118.216600 105.283400 30.783400
129.034000 106.996900 32.496900
132.416300 111.750000 37.250000
-8.016200 111.750000 37.250000
140.983800 111.750000 37.250000
-4.008100 106.847900 32.347900
144.991900 106.847900 32.347900
-6.675200 103.569900 29.069900
142.324800 103.569900 29.069900
43.716600 118.216600 30.783400
42.003100 129.034000 32.496900
37.250000 132.416300 37.250000
37.250000 -8.016200 37.250000
37.250000 140.983800 37.250000
42.152100 -4.008100 32.347900
42.152100 144.991900 32.347900
45.430100 -6.675200 29.069900
45.430100 142.324800 29.069900
30.783400 105.283400 118.216600
19.966000 106.996900 116.503100
16.583700 111.750000 111.750000
8.016200 111.750000 111.750000
157.016200 111.750000 111.750000
4.008100 106.847900 116.652100
153.008100 106.847900 116.652100
6.675200 103.569900 119.930100
155.675200 103.569900 119.930100
43.716600 30.783400 118.216600
42.003100 19.966000 116.503100
37.250000 16.583700 111.750000
37.250000 8.016200 111.750000
37.250000 157.016200 111.750000
42.152100 4.008100 116.652100
42.152100 153.008100 116.652100
45.430100 6.675200 119.930100
45.430100 155.675200 119.930100
118.216600 43.716600 118.216600
129.034000 42.003100 116.503100
132.416300 37.250000 111.750000
-8.016200 37.250000 111.750000
140.983800 37.250000 111.750000
-4.008100 42.152100 116.652100
144.991900 42.152100 116.652100
-6.675200 45.430100 119.930100
142.324800 45.430100 119.930100
105.283400 118.216600 118.216600
106.996900 129.034000 116.503100
111.750000 132.416300 111.750000
111.750000 -8.016200 111.750000
111.750000 140.983800 111.750000
106.847900 -4.008100 116.652100
106.847900 144.991900 116.652100
103.569900 -6.675200 119.930100
103.569900 142.324800 119.930100
30.783400 30.783400 43.716600
32.496900 19.966000 42.003100
37.250000 16.583700 37.250000
37.250000 8.016200 37.250000
37.250000 157.016200 37.250000
32.347900 4.008100 42.152100
32.347900 153.008100 42.152100
29.069900 6.675200 45.430100
29.069900 155.675200 45.430100
30.783400 118.216600 105.283400
32.496900 129.034000 106.996900
37.250000 132.416300 111.750000
37.250000 -8.016200 111.750000
37.250000 140.983800 111.750000
32.347900 -4.008100 106.847900
32.347900 144.991900 106.847900
29.069900 -6.675200 103.569900
29.069900 142.324800 103.569900
30.783400 30.783400 105.283400
19.966000 32.496900 106.996900
16.583700 37.250000 111.750000
8.016200 37.250000 111.750000
157.016200 37.250000 111.750000
4.008100 32.347900 106.847900
153.008100 32.347900 106.847900
6.675200 29.069900 103.569900
155.675200 29.069900 103.569900
118.216600 30.783400 105.283400
116.503100 19.966000 106.996900
111.750000 16.583700 111.750000
111.750000 8.016200 111.750000
111.750000 157.016200 111.750000
116.652100 4.008100 106.847900
116.652100 153.008100 106.847900
119.930100 6.675200 103.569900
119.930100 155.675200 103.569900
118.216600 118.216600 105.283400
129.034000 116.503100 106.996900
132.416300 111.750000 111.750000
-8.016200 111.750000 111.750000
140.983800 111.750000 111.750000
-4.008100 116.652100 106.847900
144.991900 116.652100 106.847900
-6.675200 119.930100 103.569900
142.324800 119.930100 103.569900
118.216600 118.216600 43.716600
116.503100 129.034000 42.003100
111.750000 132.416300 37.250000
111.750000 -8.016200 37.250000
111.750000 140.983800 37.250000
116.652100 -4.008100 42.152100
116.652100 144.991900 42.152100
119.930100 -6.675200 45.430100
119.930100 142.324800 45.430100
30.783400 118.216600 43.716600
19.966000 116.503100 42.003100
16.583700 111.750000 37.250000
8.016200 111.750000 37.250000
157.016200 111.750000 37.250000
4.008100 116.652100 42.152100
153.008100 116.652100 42.152100
6.675200 119.930100 45.430100
155.675200 119.930100 45.430100
118.216600 30.783400 43.716600
129.034000 32.496900 42.003100
132.416300 37.250000 37.250000
-8.016200 37.250000 37.250000
140.983800 37.250000 37.250000
-4.008100 32.347900 42.152100
144.991900 32.347900 42.152100
-6.675200 29.069900 45.430100
142.324800 29.069900 45.430100
106.996900 116.503100 129.034000
106.847900 116.652100 -4.008100
106.847900 116.652100 144.991900
103.569900 119.930100 -6.675200
103.569900 119.930100 142.324800
32.496900 106.996900 129.034000
32.347900 106.847900 -4.008100
32.347900 106.847900 144.991900
29.069900 103.569900 -6.675200
29.069900 103.569900 142.324800
42.003100 32.496900 129.034000
42.152100 32.347900 -4.008100
42.152100 32.347900 144.991900
45.430100 29.069900 -6.675200
45.430100 29.069900 142.324800
116.503100 42.003100 129.034000
116.652100 42.152100 -4.008100
116.652100 42.152100 144.991900
119.930100 45.430100 -6.675200
119.930100 45.430100 142.324800
106.996900 32.496900 19.966000
106.847900 32.347900 4.008100
106.847900 32.347900 153.008100
103.569900 29.069900 6.675200
103.569900 29.069900 155.675200
116.503100 106.996900 19.966000
116.652100 106.847900 4.008100
116.652100 106.847900 153.008100
119.930100 103.569900 6.675200
119.930100 103.569900 155.675200
42.003100 116.503100 19.966000
42.152100 116.652100 4.008100
42.152100 116.652100 153.008100
45.430100 119.930100 6.675200
45.430100 119.930100 155.675200
32.496900 42.003100 19.966000
32.347900 42.152100 4.008100
32.347900 42.152100 153.008100
29.069900 45.430100 6.675200
29.069900 45.430100 155.675200
129.034000 106.996900 116.503100
-4.008100 106.847900 116.652100
144.991900 106.847900 116.652100
-6.675200 103.569900 119.930100
142.324800 103.569900 119.930100
42.003100 129.034000 116.503100
42.152100 -4.008100 116.652100
42.152100 144.991900 116.652100
45.430100 -6.675200 119.930100
45.430100 142.324800 119.930100
19.966000 42.003100 116.503100
4.008100 42.152100 116.652100
153.008100 42.152100 116.652100
6.675200 45.430100 119.930100
155.675200 45.430100 119.930100
106.996900 19.966000 116.503100
106.847900 4.008100 116.652100
106.847900 153.008100 116.652100
103.569900 6.675200 119.930100
103.569900 155.675200 119.930100
129.034000 42.003100 32.496900
-4.008100 42.152100 32.347900
144.991900 42.152100 32.347900
-6.675200 45.430100 29.069900
142.324800 45.430100 29.069900
106.996900 129.034000 32.496900
106.847900 -4.008100 32.347900
106.847900 144.991900 32.347900
103.569900 -6.675200 29.069900
103.569900 142.324800 29.069900
19.966000 106.996900 32.496900
4.008100 106.847900 32.347900
153.008100 106.847900 32.347900
6.675200 103.569900 29.069900
155.675200 103.569900 29.069900
42.003100 19.966000 32.496900
42.152100 4.008100 32.347900
42.152100 153.008100 32.347900
45.430100 6.675200 29.069900
45.430100 155.675200 29.069900
116.503100 129.034000 106.996900
116.652100 -4.008100 106.847900
116.652100 144.991900 106.847900
119.930100 -6.675200 103.569900
119.930100 142.324800 103.569900
116.503100 19.966000 42.003100
116.652100 4.008100 42.152100
116.652100 153.008100 42.152100
119.930100 6.675200 45.430100
119.930100 155.675200 45.430100
129.034000 116.503100 42.003100
-4.008100 116.652100 42.152100
[...]
POINT_DATA 544
SCALARS my_scalars float
LOOKUP_TABLE default
1.39
1.52
1.52
1.7
1.7
1.7
1.7
1.7
1.09
1.09
1.39
1.52
1.52
1.7
1.7
1.7
1.7
1.7
1.09
1.09
1.39
1.52
1.52
1.7
1.7
1.7
1.7
1.7
1.09
1.09
1.39
1.52
1.52
1.7
1.7
1.7
1.7
1.7
1.09
1.09
1.39
1.52
1.52
1.7
1.7
1.7
1.7
1.7
1.09
1.09
1.39
1.52
1.52
1.7
1.7
1.7
1.7
1.7
1.09
1.09
1.39
1.52
1.52
1.7
1.7
1.7
1.7
1.7
1.09
1.09
1.39
1.52
1.52
1.7
1.7
1.7
1.7
1.7
1.09
1.09
1.39
1.52
1.7
1.7
1.7
1.7
1.7
1.09
1.09
1.39
1.52
1.7
1.7
1.7
1.7
1.7
1.09
1.09
1.39
1.52
1.7
1.7
1.7
1.7
1.7
1.09
1.09
1.39
1.52
1.7
1.7
1.7
1.7
1.7
1.09
1.09
1.39
1.52
1.7
1.7
1.7
1.7
1.7
1.09
1.09
1.39
1.52
1.7
1.7
1.7
1.7
1.7
1.09
1.09
1.39
1.52
1.7
1.7
1.7
1.7
1.7
1.09
1.09
1.39
1.52
1.7
1.7
1.7
1.7
1.7
1.09
1.09
1.39
1.52
1.7
1.7
1.7
1.7
1.7
1.09
1.09
1.39
1.52
1.7
1.7
1.7
1.7
1.7
1.09
1.09
1.39
1.52
1.7
1.7
1.7
1.7
1.7
1.09
1.09
1.39
1.52
1.7
1.7
1.7
1.7
1.7
1.09
1.09
1.39
1.52
1.7
1.7
1.7
1.7
1.7
1.09
1.09
1.39
1.52
1.7
1.7
1.7
1.7
1.7
1.09
1.09
1.39
1.52
1.7
1.7
1.7
1.7
1.7
1.09
1.09
1.39
1.52
1.7
1.7
1.7
1.7
1.7
1.09
1.09
1.52
1.7
1.7
1.09
1.09
1.52
1.7
1.7
1.09
1.09
1.52
1.7
1.7
1.09
1.09
1.52
1.7
1.7
1.09
1.09
1.52
1.7
1.7
1.09
1.09
1.52
1.7
1.7
1.09
1.09
1.52
1.7
1.7
1.09
1.09
1.52
1.7
1.7
1.09
1.09
1.52
1.7
1.7
1.09
1.09
1.52
1.7
1.7
1.09
1.09
1.52
1.7
1.7
1.09
1.09
1.52
1.7
1.7
1.09
1.09
1.52
1.7
1.7
1.09
1.09
1.52
1.7
1.7
1.09
1.09
1.52
1.7
1.7
1.09
1.09
1.52
1.7
1.7
1.09
1.09
1.52
1.7
1.7
1.09
1.09
1.52
1.7
1.7
1.09
1.09
1.52
1.7
1.7
1.09
1.09
1.52
1.7
1.7
1.09
1.09
1.52
1.7
1.7
1.09
1.09
1.52
1.7
1.7
1.09
1.09
1.52
1.7
1.7
1.09
1.09
1.52
1.7
1.7
1.09
1.09
1.39
1.52
1.7
1.7
1.7
1.09
1.52
1.7
1.7
1.7
1.09
1.39
1.52
1.7
1.7
1.7
1.09
1.52
1.7
1.7
1.7
1.09
1.39
1.52
1.7
1.7
1.7
1.09
1.52
1.7
1.7
1.7
1.09
1.39
1.52
1.7
1.7
1.7
1.09
1.52
1.7
1.7
1.7
1.09
1.39
1.52
1.7
1.7
1.7
1.09
1.39
1.52
1.7
1.7
1.7
1.09
1.39
1.52
1.7
1.7
1.7
1.09
1.39
1.52
1.7
1.7
1.7
1.09
1.52
1.7
1.7
1.7
1.09
1.52
1.7
1.7
1.7
1.09
1.52
1.7
1.7
1.7
1.09
1.52
1.7
1.7
1.7
1.09
1.52
1.7
1.09
1.52
1.7
1.09
1.52
1.7
1.09
1.52
1.7
1.09
1.52
1.7
1.09
1.52
1.7
1.09
1.52
1.7
1.09
1.52
1.7
1.09
1.52
1.7
1.09
1.52
1.7
1.09
1.52
1.7
1.09
1.52
1.7
1.09
1.52
1.7
1.09
1.52
1.7
1.09
1.52
1.7
1.09
1.52
1.7
1.09
1.52
1.7
1.7
1.7
1.09
1.52
1.7
1.7
1.7
1.09
1.52
1.7
1.7
1.7
1.09
1.52
1.7
1.7
1.7
1.09
1.52
1.7
1.7
1.7
1.09
1.52
1.7
1.7
1.7
1.09
1.52
1.7
1.7
1.7
1.09
1.52
1.7
1.7
1.7
1.09
1.52
1.7
1.09
1.52
1.7
1.09
1.52
1.7
1.09
1.52
1.7
1.09
1.52
1.7
1.09
1.52
1.7
1.09
1.52
1.7
1.09
1.52
1.7
1.09
VECTORS vectors float
0.4375 0 0
0.03125 0 0
0.03125 0 0
0.3125 0 0
0.3125 0 0
0.3125 0 0
0.3125 0 0
0.3125 0 0
0.25 0 0
0.25 0 0
0.4375 0 0
0.03125 0 0
0.03125 0 0
0.3125 0 0
0.3125 0 0
0.3125 0 0
0.3125 0 0
0.3125 0 0
0.25 0 0
0.25 0 0
0.4375 0 0
0.03125 0 0
0.03125 0 0
0.3125 0 0
0.3125 0 0
0.3125 0 0
0.3125 0 0
0.3125 0 0
0.25 0 0
0.25 0 0
0.4375 0 0
0.03125 0 0
0.03125 0 0
0.3125 0 0
0.3125 0 0
0.3125 0 0
0.3125 0 0
0.3125 0 0
0.25 0 0
0.25 0 0
0.4375 0 0
0.03125 0 0
0.03125 0 0
0.3125 0 0
0.3125 0 0
0.3125 0 0
0.3125 0 0
0.3125 0 0
0.25 0 0
0.25 0 0
0.4375 0 0
0.03125 0 0
0.03125 0 0
0.3125 0 0
0.3125 0 0
0.3125 0 0
0.3125 0 0
0.3125 0 0
0.25 0 0
0.25 0 0
0.4375 0 0
0.03125 0 0
0.03125 0 0
0.3125 0 0
0.3125 0 0
0.3125 0 0
0.3125 0 0
0.3125 0 0
0.25 0 0
0.25 0 0
0.4375 0 0
0.03125 0 0
0.03125 0 0
0.3125 0 0
0.3125 0 0
0.3125 0 0
0.3125 0 0
0.3125 0 0
0.25 0 0
0.25 0 0
0.4375 0 0
0.03125 0 0
0.3125 0 0
0.3125 0 0
0.3125 0 0
0.3125 0 0
0.3125 0 0
0.25 0 0
0.25 0 0
0.4375 0 0
0.03125 0 0
0.3125 0 0
0.3125 0 0
0.3125 0 0
0.3125 0 0
0.3125 0 0
0.25 0 0
0.25 0 0
0.4375 0 0
0.03125 0 0
0.3125 0 0
0.3125 0 0
0.3125 0 0
0.3125 0 0
0.3125 0 0
0.25 0 0
0.25 0 0
0.4375 0 0
0.03125 0 0
0.3125 0 0
0.3125 0 0
0.3125 0 0
0.3125 0 0
0.3125 0 0
0.25 0 0
0.25 0 0
0.4375 0 0
0.03125 0 0
0.3125 0 0
0.3125 0 0
0.3125 0 0
0.3125 0 0
0.3125 0 0
0.25 0 0
0.25 0 0
0.4375 0 0
0.03125 0 0
0.3125 0 0
0.3125 0 0
0.3125 0 0
0.3125 0 0
0.3125 0 0
0.25 0 0
0.25 0 0
0.4375 0 0
0.03125 0 0
0.3125 0 0
0.3125 0 0
0.3125 0 0
0.3125 0 0
0.3125 0 0
0.25 0 0
0.25 0 0
0.4375 0 0
0.03125 0 0
0.3125 0 0
0.3125 0 0
0.3125 0 0
0.3125 0 0
0.3125 0 0
0.25 0 0
0.25 0 0
0.4375 0 0
0.03125 0 0
0.3125 0 0
0.3125 0 0
0.3125 0 0
0.3125 0 0
0.3125 0 0
0.25 0 0
0.25 0 0
0.4375 0 0
0.03125 0 0
0.3125 0 0
0.3125 0 0
0.3125 0 0
0.3125 0 0
0.3125 0 0
0.25 0 0
0.25 0 0
0.4375 0 0
0.03125 0 0
0.3125 0 0
0.3125 0 0
0.3125 0 0
0.3125 0 0
0.3125 0 0
0.25 0 0
0.25 0 0
0.4375 0 0
0.03125 0 0
0.3125 0 0
0.3125 0 0
0.3125 0 0
0.3125 0 0
0.3125 0 0
0.25 0 0
0.25 0 0
0.4375 0 0
0.03125 0 0
0.3125 0 0
0.3125 0 0
0.3125 0 0
0.3125 0 0
0.3125 0 0
0.25 0 0
0.25 0 0
0.4375 0 0
0.03125 0 0
0.3125 0 0
0.3125 0 0
0.3125 0 0
0.3125 0 0
0.3125 0 0
0.25 0 0
0.25 0 0
0.4375 0 0
0.03125 0 0
0.3125 0 0
0.3125 0 0
0.3125 0 0
0.3125 0 0
0.3125 0 0
0.25 0 0
0.25 0 0
0.4375 0 0
0.03125 0 0
0.3125 0 0
0.3125 0 0
0.3125 0 0
0.3125 0 0
0.3125 0 0
0.25 0 0
0.25 0 0
0.03125 0 0
0.3125 0 0
0.3125 0 0
0.25 0 0
0.25 0 0
0.03125 0 0
0.3125 0 0
0.3125 0 0
0.25 0 0
0.25 0 0
0.03125 0 0
0.3125 0 0
0.3125 0 0
0.25 0 0
0.25 0 0
0.03125 0 0
0.3125 0 0
0.3125 0 0
0.25 0 0
0.25 0 0
0.03125 0 0
0.3125 0 0
0.3125 0 0
0.25 0 0
0.25 0 0
0.03125 0 0
0.3125 0 0
0.3125 0 0
0.25 0 0
0.25 0 0
0.03125 0 0
0.3125 0 0
0.3125 0 0
0.25 0 0
0.25 0 0
0.03125 0 0
0.3125 0 0
0.3125 0 0
0.25 0 0
0.25 0 0
0.03125 0 0
0.3125 0 0
0.3125 0 0
0.25 0 0
0.25 0 0
0.03125 0 0
0.3125 0 0
0.3125 0 0
0.25 0 0
0.25 0 0
0.03125 0 0
0.3125 0 0
0.3125 0 0
0.25 0 0
0.25 0 0
0.03125 0 0
0.3125 0 0
0.3125 0 0
0.25 0 0
0.25 0 0
0.03125 0 0
0.3125 0 0
0.3125 0 0
0.25 0 0
0.25 0 0
0.03125 0 0
0.3125 0 0
0.3125 0 0
0.25 0 0
0.25 0 0
0.03125 0 0
0.3125 0 0
0.3125 0 0
0.25 0 0
0.25 0 0
0.03125 0 0
0.3125 0 0
0.3125 0 0
0.25 0 0
0.25 0 0
0.03125 0 0
0.3125 0 0
0.3125 0 0
0.25 0 0
0.25 0 0
0.03125 0 0
0.3125 0 0
0.3125 0 0
0.25 0 0
0.25 0 0
0.03125 0 0
0.3125 0 0
0.3125 0 0
0.25 0 0
0.25 0 0
0.03125 0 0
0.3125 0 0
0.3125 0 0
0.25 0 0
0.25 0 0
0.03125 0 0
0.3125 0 0
0.3125 0 0
0.25 0 0
0.25 0 0
0.03125 0 0
0.3125 0 0
0.3125 0 0
0.25 0 0
0.25 0 0
0.03125 0 0
0.3125 0 0
0.3125 0 0
0.25 0 0
0.25 0 0
0.03125 0 0
0.3125 0 0
0.3125 0 0
0.25 0 0
0.25 0 0
0.4375 0 0
0.03125 0 0
0.3125 0 0
0.3125 0 0
0.3125 0 0
0.25 0 0
0.03125 0 0
0.3125 0 0
0.3125 0 0
0.3125 0 0
0.25 0 0
0.4375 0 0
0.03125 0 0
0.3125 0 0
0.3125 0 0
0.3125 0 0
0.25 0 0
0.03125 0 0
0.3125 0 0
0.3125 0 0
0.3125 0 0
0.25 0 0
0.4375 0 0
0.03125 0 0
0.3125 0 0
0.3125 0 0
0.3125 0 0
0.25 0 0
0.03125 0 0
0.3125 0 0
0.3125 0 0
0.3125 0 0
0.25 0 0
0.4375 0 0
0.03125 0 0
0.3125 0 0
0.3125 0 0
0.3125 0 0
0.25 0 0
0.03125 0 0
0.3125 0 0
0.3125 0 0
0.3125 0 0
0.25 0 0
0.4375 0 0
0.03125 0 0
0.3125 0 0
0.3125 0 0
0.3125 0 0
0.25 0 0
0.4375 0 0
0.03125 0 0
0.3125 0 0
0.3125 0 0
0.3125 0 0
0.25 0 0
0.4375 0 0
0.03125 0 0
0.3125 0 0
0.3125 0 0
0.3125 0 0
0.25 0 0
0.4375 0 0
0.03125 0 0
0.3125 0 0
0.3125 0 0
0.3125 0 0
0.25 0 0
0.03125 0 0
0.3125 0 0
0.3125 0 0
0.3125 0 0
0.25 0 0
0.03125 0 0
0.3125 0 0
0.3125 0 0
0.3125 0 0
0.25 0 0
0.03125 0 0
0.3125 0 0
0.3125 0 0
0.3125 0 0
0.25 0 0
0.03125 0 0
0.3125 0 0
0.3125 0 0
0.3125 0 0
0.25 0 0
0.03125 0 0
0.3125 0 0
0.25 0 0
0.03125 0 0
0.3125 0 0
0.25 0 0
0.03125 0 0
0.3125 0 0
0.25 0 0
0.03125 0 0
0.3125 0 0
0.25 0 0
0.03125 0 0
0.3125 0 0
0.25 0 0
0.03125 0 0
0.3125 0 0
0.25 0 0
0.03125 0 0
0.3125 0 0
0.25 0 0
0.03125 0 0
0.3125 0 0
0.25 0 0
0.03125 0 0
0.3125 0 0
0.25 0 0
0.03125 0 0
0.3125 0 0
0.25 0 0
0.03125 0 0
0.3125 0 0
0.25 0 0
0.03125 0 0
0.3125 0 0
0.25 0 0
0.03125 0 0
0.3125 0 0
0.25 0 0
0.03125 0 0
0.3125 0 0
0.25 0 0
0.03125 0 0
0.3125 0 0
0.25 0 0
0.03125 0 0
0.3125 0 0
0.25 0 0
0.03125 0 0
0.3125 0 0
0.3125 0 0
0.3125 0 0
0.25 0 0
0.03125 0 0
0.3125 0 0
0.3125 0 0
0.3125 0 0
0.25 0 0
0.03125 0 0
0.3125 0 0
0.3125 0 0
0.3125 0 0
0.25 0 0
0.03125 0 0
0.3125 0 0
0.3125 0 0
0.3125 0 0
0.25 0 0
0.03125 0 0
0.3125 0 0
0.3125 0 0
0.3125 0 0
0.25 0 0
0.03125 0 0
0.3125 0 0
0.3125 0 0
0.3125 0 0
0.25 0 0
0.03125 0 0
0.3125 0 0
0.3125 0 0
0.3125 0 0
0.25 0 0
0.03125 0 0
0.3125 0 0
0.3125 0 0
0.3125 0 0
0.25 0 0
0.03125 0 0
0.3125 0 0
0.25 0 0
0.03125 0 0
0.3125 0 0
0.25 0 0
0.03125 0 0
0.3125 0 0
0.25 0 0
0.03125 0 0
0.3125 0 0
0.25 0 0
0.03125 0 0
0.3125 0 0
0.25 0 0
0.03125 0 0
0.3125 0 0
0.25 0 0
0.03125 0 0
0.3125 0 0
0.25 0 0
0.03125 0 0
0.3125 0 0
0.25 0 0
