Compiler and run-time data
===========================================================================
RASPA 1.6-2
Compiled as a 64-bits application
Compiler: gcc 4.2.1 (Based on Apple Inc. build 5658) (LLVM build 2336.11.00)
Compile Date = Sep  1 2012, Compile Time = 19:19:15

Thu Sep 20 20:03:35 2012
Simulation started on Thursday, September 20.
The start time was 08:03 PM.

Cpu data:    x86_64
Cpu Model:   MacPro5,1
Host name:   server.darkwing.nl
OS release:  12.1.0
OS type:     Darwin
OS version:  12B19


Simulation
===========================================================================
Dimensions: 3
Random number seed: 1348164214
RASPA directory set to: /Users/dubbelda/RASPA/simulations/
String appended to output-files: 
Number of cycles: 10000
Number of initializing cycles: 5000
Number of equilibration cycles: 0
Print every: 100
Triclinic boundary condition applied
Timestep: 0.000500
Initialization Ensemble: NVE (constant number of particles N, constant volume V, constant energy E)
Production run ensemble: NVE (constant number of particles N, constant volume V, constant energy E)
	Degrees of freedom:                        1800
	Translational Degrees of freedom:          1800
	Rotational Degrees of freedom:             0
	Degrees of freedom Framework:              0


Mutual consistent basic set of units:
======================================
Unit of temperature: Kelvin
Unit of length:      1e-10 [m]
Unit of time:        1e-12 [s]
Unit of mass:        1.66054e-27 [kg]
Unit of charge:      1.60218e-19 [C/particle]

Derived units and their conversion factors:
===========================================
Unit of energy:              1.66054e-23 [J]
Unit of force:               1.66054e-13 [N]
Unit of pressure:            1.66054e+07 [Pa]
Unit of velocity:            100 [m/s]
Unit of acceleration:        1e-08 [m^2/s]
Unit of diffusion:           1e-08 [m^2/s]
Unit of dipole moment:       1.60218e-29 [C.m]
Unit of electric potential:  0.000103643 [V]
Unit of electric field:      1.03643e+06 [V]
Unit of polarizability:      1.54587e-35 [-]
Unit of Coulomb potential:   167101.0800066561  [K]
Unit of dielectric constant: 0.0000154587       [s^2 C^2/(kg m^3)]
Unit of wave vectors:        5.3088374589       [cm^1]
Boltzmann constant:          0.8314464919       [-]

Internal conversion factors:
===========================================
Energy to Kelvin:                                    1.2027242847
FH correction factor                                 2.0211930949
Heat capacity conversion factor:                    10.0000088723
From Debye to internal units:                        4.8032067991
Isothermal compressibility conversion factor:        0.0000000602

Energy conversion factors:
===========================================
From mdyne/A to kcal/mol/A^2:           143.933
From mdyne/A to kj/mol/A^2:             602.214
From mdyne/A to K/A^2:                  72429.7
From mdyne A/rad^2 to kcal/mol/deg^2:   0.0438444


Properties computed
===========================================================================
Movies: no
Radial Distribution Function: no
Number of molecules GCMC histogram: no
Histogram of the molecule positions: no
Free energy profiles: no
Pore Size Distribution Function: no
End-to-end distance: no
Histogram of the energy of the system: no
Compute thermodynamic factors: no
Framework spacing histograms: no
Residence times histograms: no
Distance histograms: no
Bend Angle histograms: no
Dihedral angle histograms: no
Angle between planes histograms: no
Molecule properties: no
Infra-red spectra: no
Mean-squared displacement using modified order-N algorithm: no
Velocity-autocorrelation function modified order-N algorithm: no
Rotational velocity-autocorrelation function modified order-N algorithm: no
Molecular orientation-autocorrelation function modified order-N algorithm: no
Mean-squared displacement (conventional algorithm): no
Velocity-autocorrelation function (conventional algorithm): no
3D density grid for adsorbates: no
Compute cation an/or adsorption sites: no
dcTST snapshots: no
Compute pressure and stress: yes


VTK
===========================================================================
VTK fractional-range position framework atoms: [-0.001000,1.001000] [-0.001000,1.001000] [-0.001000,1.001000]
VTK fractional-range position framework bonds: [-0.151000,1.151000] [-0.151000,1.151000] [-0.151000,1.151000]
VTK fractional-range com-position adsorbate molecules: [-0.101000,1.101000] [-0.101000,1.101000] [-0.101000,1.101000]
VTK fractional-range com-position cation molecules: [-0.101000,1.101000] [-0.101000,1.101000] [-0.101000,1.101000]
	3D free energy grid made for the full simulation-cell


Thermo/Baro-stat NHC parameters
===========================================================================
External temperature: 185.000000 [K]
Beta: 0.006501 [energy unit]
External Pressure: 0.000000 [Pa]


Thermostat chain-length: 3
Timescale parameter for thermostat: 0.150000 [ps]
Barostat chain-length:   3
Timescale parameter for barostat:   0.150000 [ps]

Number of Yoshida-Suzuki decomposition steps: 5
Number of respa steps: 5


Method and settings for electrostatics
===============================================================================
Dielectric constant of the medium : 1.000000
Charge from charge-equilibration: no
Ewald summation is used (exact solution of a periodic system)
Relative precision                : 1e-06
Alpha convergence parameter       : 0.265058
kvec (x,y,z)                      : 8 8 8


Rattle parameters
===========================================================================
Distance constraint type: r^2-r^2_0
Bend angle constraint type: theta-theta_0
Dihedral angle constraint type: phi-phi_0
Inversion-bend angle constraint type: chi-chi_0
Out-of-plane distance constraint type: r-r_0


Spectra parameters
===========================================================================
Compute normal modes: no


Minimization parameters
===========================================================================
Generalized coordinates are: Cartesian center-of-mass, elements of the orientational matrix p1,p2,p3 and strain
Potential derivatives are evaluated: analytically
Translation of the system is removed from the generalized Hessian: no
Rotation of the system is removed from the generalized Hessian: no
Maximum step-length: 0.3
Convergence factor: 1
Maximum number of minimization steps: 10000
Use gradients in the line-minimizations: yes
RMS gradient tolerance: 1e-06
Maximum gradient tolerance: 1e-06

Distance constraints: 0
Angle constraints: 0
Dihedral constraints: 0

Improper dihedral constraints: 0

Inversion-bend constraints: 0

Out-of-plane constraints: 0

Harmonic distance constraints: 0
Harmonic angle constraints: 0
Harmonic dihedral constraints: 0

Dihedral mid-point measurements: 0

All framework atoms are fixed

Fixed adsorbate atoms:  
Fixed adsorbate groups (center-of-mass):  
Fixed adsorbate groups (orientation):  

Fixed cation atoms:  
Fixed cation groups (center-of-mass):  
Fixed cation groups (orientation):  


dcTST parameters
===========================================================================
Free energy profiles computed: no
Free energy profiles written every 5000 cycles
Free energy mapping: mapped to a,b,c-coordinates
BarrierPosition:       0.0000000000       0.0000000000       0.0000000000
BarrierNormal:         0.0000000000       0.0000000000       0.0000000000
Start with a molecule on top of the barrier: no
Maximum distance to barrier (e.g. distance to minumum free energy):       0.0000000000 [A]
Maximum trajectory time:      10.0000000000 [ps]
Each configuration is used with 5 different initial velocities


Cbmc parameters
===========================================================================
Biasing method: using only the VDW part
Number of trial positions:                             10
Number of trial positions coupled Torsion-selection:   100
Number of trial position for the first bead:           10
Number of trial moves per open bead:                   150
Target acceptance ratio small-mc scheme:               0.400000
Energy overlap criteria:                               100000
Minimal Rosenbluth factor:                             1e-150


Pseudo atoms: 10
===========================================================================
Pseudo Atom[   0] Name UNIT     Oxidation: -        Element: H    pdb-name: H    Scat. Types:   1   1 Mass=1.000000000  B-factor:1.000   
                 Charge=1.000000000   Polarization=0.000000000  [A^3] (considered a charged atom and no polarization)  Interactions:  no
                 Anisotropic factor:    0.000 [-] (Absolute), Radius:    1.000 [A]
Pseudo Atom[   1] Name CH4_sp3  Oxidation: -        Element: C    pdb-name: C    Scat. Types:   7   6 Mass=16.042460000 B-factor:1.000   
                 Charge=0.000000000   Polarization=0.000000000  [A^3] (considered a chargeless atom and no polarization)  Interactions: yes
                 Anisotropic factor:    0.000 [-] (Absolute), Radius:    1.000 [A]
Pseudo Atom[   2] Name CH3_sp3  Oxidation: -        Element: C    pdb-name: C    Scat. Types:   7   6 Mass=15.034520000 B-factor:1.000   
                 Charge=0.000000000   Polarization=0.000000000  [A^3] (considered a chargeless atom and no polarization)  Interactions: yes
                 Anisotropic factor:    0.000 [-] (Absolute), Radius:    1.000 [A]
Pseudo Atom[   3] Name CH2_sp3  Oxidation: -        Element: C    pdb-name: C    Scat. Types:   7   6 Mass=14.026580000 B-factor:1.000   
                 Charge=0.000000000   Polarization=0.000000000  [A^3] (considered a chargeless atom and no polarization)  Interactions: yes
                 Anisotropic factor:    0.000 [-] (Absolute), Radius:    1.000 [A]
Pseudo Atom[   4] Name CH_sp3   Oxidation: -        Element: C    pdb-name: C    Scat. Types:   7   6 Mass=13.018640000 B-factor:1.000   
                 Charge=0.000000000   Polarization=0.000000000  [A^3] (considered a chargeless atom and no polarization)  Interactions: yes
                 Anisotropic factor:    0.000 [-] (Absolute), Radius:    1.000 [A]
Pseudo Atom[   5] Name C_sp3    Oxidation: -        Element: C    pdb-name: C    Scat. Types:   7   6 Mass=12.000000000 B-factor:1.000   
                 Charge=0.000000000   Polarization=0.000000000  [A^3] (considered a chargeless atom and no polarization)  Interactions: yes
                 Anisotropic factor:    0.000 [-] (Absolute), Radius:    1.000 [A]
Pseudo Atom[   6] Name C_co2    Oxidation: -        Element: C    pdb-name: C    Scat. Types:   7   6 Mass=12.010700000 B-factor:1.000   
                 Charge=0.700000000   Polarization=1.508000000  [A^3] (considered a charged atom and polarizable)  Interactions: yes
                 Anisotropic factor:    0.000 [-] (Relative), Radius:    0.720 [A]
Pseudo Atom[   7] Name O_co2    Oxidation: -        Element: O    pdb-name: O    Scat. Types:   9   8 Mass=15.999400000 B-factor:1.000   
                 Charge=-0.350000000  Polarization=0.947500000  [A^3] (considered a charged atom and polarizable)  Interactions: yes
                 Anisotropic factor:    0.000 [-] (Relative), Radius:    0.680 [A]
Pseudo Atom[   8] Name N_n2     Oxidation: -        Element: N    pdb-name: N    Scat. Types:   8   7 Mass=14.006740000 B-factor:1.000   
                 Charge=-0.482000000  Polarization=0.000000000  [A^3] (considered a charged atom and no polarization)  Interactions: yes
                 Anisotropic factor:    0.000 [-] (Relative), Radius:    0.700 [A]
Pseudo Atom[   9] Name N_com    Oxidation: -        Element: N    pdb-name: N    Scat. Types:   8   7 Mass=0.000000000  B-factor:1.000   
                 Charge=0.964000000   Polarization=0.000000000  [A^3] (considered a charged atom and no polarization)  Interactions:  no
                 Anisotropic factor:    0.000 [-] (Relative), Radius:    0.700 [A]


Forcefield: TraPPE
===========================================================================
CutOff VDW : 12.000000 (144.000000)
CutOff VDW switching on: 10.800000 (116.640000)
CutOff charge-charge : 12.000000 (144.000000)
CutOff charge-charge switching on: 7.800000 (60.840000)
CutOff charge-bonddipole : 12.000000 (144.000000)
CutOff charge-bondipole switching on: 8.400000 (70.560000)
CutOff bonddipole-bonddipole : 12.000000 (144.000000)
CutOff bonddipole-bondipole switching on: 9.000000 (81.000000)
Polarization is neglected
TailCorrections are used
All potentials are unshifted !!!!!!

General mixing rule: Lorentz-Berthelot mixing rules are used FIRST for cross terms
0 cross terms are overwritten using the individual mixing rules from the file 'force_field_mixing_rules.def'
and then 0 terms are overwritten using the specific interactions from the file 'force_field.def'

The force field and all the interactions:
CH4_sp3 - CH4_sp3 [LENNARD_JONES] p_0/k_B: 148.00000 [K], p_1: 3.73000 [A], shift/k_B:   0.00000000 [K], tailcorrection: yes
CH4_sp3 - CH3_sp3 [LENNARD_JONES] p_0/k_B: 120.43255 [K], p_1: 3.74000 [A], shift/k_B:   0.00000000 [K], tailcorrection: yes
CH4_sp3 - CH2_sp3 [LENNARD_JONES] p_0/k_B:  82.51061 [K], p_1: 3.84000 [A], shift/k_B:   0.00000000 [K], tailcorrection: yes
CH4_sp3 -  CH_sp3 [LENNARD_JONES] p_0/k_B:  38.47077 [K], p_1: 4.20500 [A], shift/k_B:   0.00000000 [K], tailcorrection: yes
CH4_sp3 -   C_sp3 [LENNARD_JONES] p_0/k_B:   8.60233 [K], p_1: 5.06500 [A], shift/k_B:   0.00000000 [K], tailcorrection: yes
CH4_sp3 -   C_co2 [LENNARD_JONES] p_0/k_B:  63.21392 [K], p_1: 3.26500 [A], shift/k_B:   0.00000000 [K], tailcorrection: yes
CH4_sp3 -   O_co2 [LENNARD_JONES] p_0/k_B: 108.12955 [K], p_1: 3.39000 [A], shift/k_B:   0.00000000 [K], tailcorrection: yes
CH4_sp3 -    N_n2 [LENNARD_JONES] p_0/k_B:  72.99315 [K], p_1: 3.52000 [A], shift/k_B:   0.00000000 [K], tailcorrection: yes
CH3_sp3 - CH3_sp3 [LENNARD_JONES] p_0/k_B:  98.00000 [K], p_1: 3.75000 [A], shift/k_B:   0.00000000 [K], tailcorrection: yes
CH3_sp3 - CH2_sp3 [LENNARD_JONES] p_0/k_B:  67.14164 [K], p_1: 3.85000 [A], shift/k_B:   0.00000000 [K], tailcorrection: yes
CH3_sp3 -  CH_sp3 [LENNARD_JONES] p_0/k_B:  31.30495 [K], p_1: 4.21500 [A], shift/k_B:   0.00000000 [K], tailcorrection: yes
CH3_sp3 -   C_sp3 [LENNARD_JONES] p_0/k_B:   7.00000 [K], p_1: 5.07500 [A], shift/k_B:   0.00000000 [K], tailcorrection: yes
CH3_sp3 -   C_co2 [LENNARD_JONES] p_0/k_B:  51.43928 [K], p_1: 3.27500 [A], shift/k_B:   0.00000000 [K], tailcorrection: yes
CH3_sp3 -   O_co2 [LENNARD_JONES] p_0/k_B:  87.98864 [K], p_1: 3.40000 [A], shift/k_B:   0.00000000 [K], tailcorrection: yes
CH3_sp3 -    N_n2 [LENNARD_JONES] p_0/k_B:  59.39697 [K], p_1: 3.53000 [A], shift/k_B:   0.00000000 [K], tailcorrection: yes
CH2_sp3 - CH2_sp3 [LENNARD_JONES] p_0/k_B:  46.00000 [K], p_1: 3.95000 [A], shift/k_B:   0.00000000 [K], tailcorrection: yes
CH2_sp3 -  CH_sp3 [LENNARD_JONES] p_0/k_B:  21.44761 [K], p_1: 4.31500 [A], shift/k_B:   0.00000000 [K], tailcorrection: yes
CH2_sp3 -   C_sp3 [LENNARD_JONES] p_0/k_B:   4.79583 [K], p_1: 5.17500 [A], shift/k_B:   0.00000000 [K], tailcorrection: yes
CH2_sp3 -   C_co2 [LENNARD_JONES] p_0/k_B:  35.24202 [K], p_1: 3.37500 [A], shift/k_B:   0.00000000 [K], tailcorrection: yes
CH2_sp3 -   O_co2 [LENNARD_JONES] p_0/k_B:  60.28267 [K], p_1: 3.50000 [A], shift/k_B:   0.00000000 [K], tailcorrection: yes
CH2_sp3 -    N_n2 [LENNARD_JONES] p_0/k_B:  40.69398 [K], p_1: 3.63000 [A], shift/k_B:   0.00000000 [K], tailcorrection: yes
 CH_sp3 -  CH_sp3 [LENNARD_JONES] p_0/k_B:  10.00000 [K], p_1: 4.68000 [A], shift/k_B:   0.00000000 [K], tailcorrection: yes
 CH_sp3 -   C_sp3 [LENNARD_JONES] p_0/k_B:   2.23607 [K], p_1: 5.54000 [A], shift/k_B:   0.00000000 [K], tailcorrection: yes
 CH_sp3 -   C_co2 [LENNARD_JONES] p_0/k_B:  16.43168 [K], p_1: 3.74000 [A], shift/k_B:   0.00000000 [K], tailcorrection: yes
 CH_sp3 -   O_co2 [LENNARD_JONES] p_0/k_B:  28.10694 [K], p_1: 3.86500 [A], shift/k_B:   0.00000000 [K], tailcorrection: yes
 CH_sp3 -    N_n2 [LENNARD_JONES] p_0/k_B:  18.97367 [K], p_1: 3.99500 [A], shift/k_B:   0.00000000 [K], tailcorrection: yes
  C_sp3 -   C_sp3 [LENNARD_JONES] p_0/k_B:   0.50000 [K], p_1: 6.40000 [A], shift/k_B:   0.00000000 [K], tailcorrection: yes
  C_sp3 -   C_co2 [LENNARD_JONES] p_0/k_B:   3.67423 [K], p_1: 4.60000 [A], shift/k_B:   0.00000000 [K], tailcorrection: yes
  C_sp3 -   O_co2 [LENNARD_JONES] p_0/k_B:   6.28490 [K], p_1: 4.72500 [A], shift/k_B:   0.00000000 [K], tailcorrection: yes
  C_sp3 -    N_n2 [LENNARD_JONES] p_0/k_B:   4.24264 [K], p_1: 4.85500 [A], shift/k_B:   0.00000000 [K], tailcorrection: yes
  C_co2 -   C_co2 [LENNARD_JONES] p_0/k_B:  27.00000 [K], p_1: 2.80000 [A], shift/k_B:   0.00000000 [K], tailcorrection: yes
  C_co2 -   O_co2 [LENNARD_JONES] p_0/k_B:  46.18441 [K], p_1: 2.92500 [A], shift/k_B:   0.00000000 [K], tailcorrection: yes
  C_co2 -    N_n2 [LENNARD_JONES] p_0/k_B:  31.17691 [K], p_1: 3.05500 [A], shift/k_B:   0.00000000 [K], tailcorrection: yes
  O_co2 -   O_co2 [LENNARD_JONES] p_0/k_B:  79.00000 [K], p_1: 3.05000 [A], shift/k_B:   0.00000000 [K], tailcorrection: yes
  O_co2 -    N_n2 [LENNARD_JONES] p_0/k_B:  53.32917 [K], p_1: 3.18000 [A], shift/k_B:   0.00000000 [K], tailcorrection: yes
   N_n2 -    N_n2 [LENNARD_JONES] p_0/k_B:  36.00000 [K], p_1: 3.31000 [A], shift/k_B:   0.00000000 [K], tailcorrection: yes


MoleculeDefinitions:
===========================================================================
Component 0 [ethane] (Adsorbate molecule)

	MoleculeDefinitions: TraPPE
	Component contains no atoms with charge
	Component contains no atoms with point dipoles (polarization)
	Component has a net charge of 0.000000

	Ideal chain Rosenbluth weight: 1.000000
	Ideal chain total energy: 0.000000

	Critical temparure [K]: 305.330000
	Critical pressure [Pa]: 4871800.000000
	Acentric factor [-]: 0.099300

	Vapour=stable, Liquid=metastable

	MolFraction:           1.0000000000 [-]
	Compressibility:       0.0000000000 [-]

	Density of the bulk fluid phase:       0.0000000000 [kg/m^3]

	Amount of excess molecules:       0.0000000000 [-]

	Conversion factor molecules/unit cell -> mol/kg:                inf [-]
	Conversion factor molecules/unit cell -> gr/gr:                inf [-]
	Conversion factor molecules/unit cell -> cm^3 STP/gr:                inf [-]
	Conversion factor molecules/unit cell -> cm^3 STP/cm^3:       1.8909350581 [-]
	Conversion factor mol/kg -> cm^3 STP/gr:      22.4139757476 [-]
	Conversion factor mol/kg -> cm^3 STP/cm^3:       0.0000000000 [-]

	Partial pressure: -16605402.00000000000000 [Pa]
	                    -124540.51499999999942 [Torr]
	                       -166.05402000000001 [bar]
	                       -163.88257586972614 [atm]

	Fugacity coefficient:      -1.0000000000 [-]

	Partial fugacity:  16605402.00000000000000 [Pa]
	                     124540.51499999999942 [Torr]
	                        166.05402000000001 [bar]
	                        163.88257586972614 [atm]

	Molecule contains 2 number of atoms
		atom:    0  is of type:    2 [   CH3_sp3] (group: 0)
		atom:    1  is of type:    2 [   CH3_sp3] (group: 0)

	Molecule contains 0 chirality centers

	Molecule contains 1 number of groups

		group: 0 containing: 2 elements
		-------------------------------------------------
		the group is modelled as flexible, i.e. no constraints
		Mass: 30.069040 [a.u.]
		Mass: 2.536749 [kg/m^3]

		Rotational Degrees of freedom: 0
		Diagonalized inertia vector:       0.0000000000
		                                   0.0000000000
		                                   0.0000000000
		element: 0 atom: 0 [   CH3_sp3] Charge:  0.000000 Anisotropy: 0.000000 Connectivity: 1 (1 )
		element: 1 atom: 1 [   CH3_sp3] Charge:  0.000000 Anisotropy: 0.000000 Connectivity: 1 (0 )

		Dipole:           0.0000000000 [D]
		Quadrupole:       0.0000000000       0.0000000000       0.0000000000 [D Angstrom]
		Quadrupole tensor [D Angstrom]
				       0.0000000000       0.0000000000       0.0000000000
				       0.0000000000       0.0000000000       0.0000000000
				       0.0000000000       0.0000000000       0.0000000000

	Starting bead for growth               : 0

	Number of atoms                        : 2

	Number of constraint bonds             : 0
	Number of constraint bends             : 0
	Number of constraint inversion bends   : 0
	Number of constraint torsions          : 0
	Number of constraint improper torsions : 0
	Number of constraint improper torsions : 0

	Number of bonds                        : 1
	Number of Urey-Bradleys                : 0
	Number of bends                        : 0
	Number of inversion bends              : 0
	Number of torsions                     : 0
	Number of improper torsions            : 0
	Number of improper torsions            : 0

	Number of bond/bond cross terms        : 0
	Number of bond/bend cross terms        : 0
	Number of bend/bend cross terms        : 0
	Number of stretch/torsion cross terms  : 0
	Number of bend/torsion cross terms     : 0

	Number of charges                      : 0
	Number of bond-dipoles                 : 0

	Number of intra Van der Waals                             : 0
	Number of intra charge-charge Coulomb                     : 0
	Number of intra charge-bonddipole Coulomb                 : 0
	Number of intra bonddipole-bonddipole Coulomb             : 0

	Number of excluded intra charge-charge Coulomb                     : 0
	Number of excluded intra charge-bonddipole Coulomb                 : 0
	Number of excluded intra bonddipole-bonddipole Coulomb             : 0

	Number of cbmc-config moves                               : 0

	Particle Moves:             
		ProbabilityTranslationMove:                  25.000000
			TranslationDirection:      XYZ
		Percentage of random translation moves:       0.000000
		Percentage of rotation moves:                 25.000000
		Percentage of partial reinsertion moves:      0.000000
		Percentage of regrow moves:                   25.000000
		Percentage of regrow-in-place moves:          0.000000
		Percentage of regrow-in-plane moves:          0.000000
		Percentage of identity-change moves:          0.000000
		Percentage of swap (insert/delete) moves:     0.000000
		Percentage of Widom insertion moves:          0.000000
		Percentage of surface-area moves:             0.000000
		Percentage of Gibbs particle-transfer moves:  25.000000
		Percentage of Gibbs identity-change moves:    0.000000

	System Moves (percentage per cycle):
		Percentage of parallel-tempering moves:       0.000000
		Percentage of hyper-parallel-tempering moves: 0.000000
		Percentage of parallel-mol-fraction moves:    0.000000
			   Component A: 0 B: 1
		Percentage of chiral inversion moves:         0.000000
		Percentage of volume-change moves:            0.000000
		Percentage of box-shape-change moves:         0.000000
		Percentage of Gibbs volume-change moves:      100.000000
		Percentage of Hybrid-NVE moves:               0.000000
		Percentage of Hybrid-NPH moves:               0.000000
		Percentage of Hybrid-NPHPR moves:             0.000000
		Percentage of framework-change moves:         0.000000
		Percentage of framework-shift moves:          0.000000

	Moves are restricted: No
	No biased sampling used for this component

	Number of Bonds: 1
	--------------------------------------------
	Bond interaction 0: A=0 B=1 Type:HARMONIC_BOND
		HARMONIC_BOND: p_0/k_B=96500.000000 [K/A^2], p_1=1.540000   [A]


	number of identity-config changes: 1
	--------------------------------------------
	nr fixed 1: 0 

	Number of pockets blocked in a unitcell: 0
		Pockets are NOT blocked for this component



System Properties
===========================================================================
Unit cell size: 27.000000 27.000000 27.000000
Cell angles (radians)  alpha: 1.570796 beta: 1.570796 gamma: 1.570796
Cell angles (degrees)  alpha: 90.000000 beta: 90.000000 gamma: 90.000000
Number of unitcells [a]: 1
Number of unitcells [b]: 1
Number of unitcells [c]: 1

TRICLINIC Boundary conditions: alpha!=90 or beta!=90 or gamma!=90

Cartesian axis A is collinear with crystallographic axis a
Cartesian axis B is collinear with (axb)xA
Cartesian axis C is collinear with (axb)

lengths of cell vectors:
 27.00000  27.00000  27.00000
cosines of cell angles:
  0.00000   0.00000   0.00000
perpendicular cell widths:
 27.00000  27.00000  27.00000
volume of the cell: 19683.000000000000 (A^3)

Orthogonalization matrix Box
Transforms fractional coordinates abc into orthonormal Cartesian coordinates xyz
Deorthogonalization matrix InverseBox
Transforms orthonormal Cartesian coordinates xyz into fractional coordinates xyz

Box[0]:
	   27.000000000000     0.000000000000     0.000000000000
	    0.000000000000    27.000000000000     0.000000000000
	    0.000000000000     0.000000000000    27.000000000000

Inverse box[0]:
	    0.037037037037    -0.000000000000    -0.000000000000
	    0.000000000000     0.037037037037    -0.000000000000
	    0.000000000000     0.000000000000     0.037037037037


Unitcell box[0]:
	   27.000000000000     0.000000000000     0.000000000000
	    0.000000000000    27.000000000000     0.000000000000
	    0.000000000000     0.000000000000    27.000000000000

Unitcell inverse box[0]:
	    0.037037037037    -0.000000000000    -0.000000000000
	    0.000000000000     0.037037037037    -0.000000000000
	    0.000000000000     0.000000000000     0.037037037037

lengths of cell vectors (inverse box):
  0.03704   0.03704   0.03704
cosines of cell angles (inverse box):
 -0.00000  -0.00000  -0.00000
perpendicular cell widths (inverse):
  0.03704   0.03704   0.03704
volume of the cell: 19683.000000000000 (A^3)

No replicas are used
Framework is simulated as 'rigid'
Number of framework atoms: 0
Number of framework atoms in the unit cell: 0
Framework Mass:     0.000000000000 [g/mol]
Framework Density:     0.000000000000 [kg/m^3]                inf [cm^3/g]
Helium void fraction:    0.00000000
Available pore volume:    0.00000000 [A^3]           nan [cm^3/g]
Conversion factor from molecule/unit cell -> kmol/m^3: 0.0843641, kmol/m^3 accesible pore volume: inf

Number Of Frameworks (per system): 0
----------------------------------------------------------------------

Current Atom Status
===========================================================================
Number of framework atoms        : 0
Number of cations molecules      : 0
Number of adsorbate molecules    : 300
Component    0 :  300 molecules
Pseudo Atoms    0 [    UNIT]:    0 atoms
Pseudo Atoms    1 [ CH4_sp3]:    0 atoms
Pseudo Atoms    2 [ CH3_sp3]:  600 atoms
Pseudo Atoms    3 [ CH2_sp3]:    0 atoms
Pseudo Atoms    4 [  CH_sp3]:    0 atoms
Pseudo Atoms    5 [   C_sp3]:    0 atoms
Pseudo Atoms    6 [   C_co2]:    0 atoms
Pseudo Atoms    7 [   O_co2]:    0 atoms
Pseudo Atoms    8 [    N_n2]:    0 atoms
Pseudo Atoms    9 [   N_com]:    0 atoms


Current (running) Energy Status
===========================================================================

Internal energy:
Host stretch energy:                                               0.00000
Host UreyBradley energy:                                           0.00000
Host bend energy:                                                  0.00000
Host inversion-bend energy:                                        0.00000
Host torsion energy:                                               0.00000
Host improper torsion energy:                                      0.00000
Host out-of-plane energy:                                          0.00000
Host stretch/stretch energy:                                       0.00000
Host bend/bend energy:                                             0.00000
Host stretch/bend energy:                                          0.00000
Host stretch/torsion energy:                                       0.00000
Host bend/torsion energy:                                          0.00000

Adsorbate stretch energy:                                      30024.69382
Adsorbate UreyBradley energy:                                      0.00000
Adsorbate bend energy:                                             0.00000
Adsorbate inversion-bend energy:                                   0.00000
Adsorbate torsion energy:                                          0.00000
Adsorbate improper torsion energy:                                 0.00000
Adsorbate out-of-plane energy:                                     0.00000
Adsorbate stretch/stretch energy:                                  0.00000
Adsorbate bend/bend energy:                                        0.00000
Adsorbate stretch/bend energy:                                     0.00000
Adsorbate stretch/torsion energy:                                  0.00000
Adsorbate bend/torsion energy:                                     0.00000
Adsorbate intra VDW energy:                                        0.00000
Adsorbate intra charge-charge Coulomb energy:                      0.00000
Adsorbate intra charge-bonddipole Coulomb energy:                  0.00000
Adsorbate intra bonddipole-bonddipole Coulomb energy:              0.00000

Cation stretch energy:                                             0.00000
Cation UreyBradley energy:                                         0.00000
Cation bend energy:                                                0.00000
Cation inversion-bend energy:                                      0.00000
Cation torsion energy:                                             0.00000
Cation improper torsion energy:                                    0.00000
Cation out-of-plane energy:                                        0.00000
Cation stretch/stretch energy:                                     0.00000
Cation bend/bend energy:                                           0.00000
Cation stretch/bend energy:                                        0.00000
Cation stretch/torsion energy:                                     0.00000
Cation bend/torsion energy:                                        0.00000
Cation intra VDW energy:                                           0.00000
Cation intra charge-charge Coulomb energy:                         0.00000
Cation intra charge-bonddipole Coulomb energy:                     0.00000
Cation intra bonddipole-bonddipole Coulomb energy:                 0.00000

Host/Host energy:                                                0.00000
	Host/Host VDW energy:                                            0.00000
	Host/Host Coulomb energy:                                        0.00000
	Host/Host charge-charge Real energy:                             0.00000
	Host/Host charge-charge Fourier energy:                          0.00000
	Host/Host charge-bonddipole Real energy:                         0.00000
	Host/Host charge-bonddipole Fourier energy:                      0.00000
	Host/Host bondipole-bonddipole Real energy:                      0.00000
	Host/Host bondipole-bonddipole Fourier energy:                   0.00000

Host/Adsorbate energy:                                           0.00000
	Host/Adsorbate VDW energy:                                       0.00000
	Host/Adsorbate Coulomb energy:                                   0.00000
	Host/Adsorbate charge-charge Real energy:                        0.00000
	Host/Adsorbate charge-charge Fourier energy:                     0.00000
	Host/Adsorbate charge-bonddipole Real energy:                    0.00000
	Host/Adsorbate charge-bonddipole Fourier energy:                 0.00000
	Host/Adsorbate bondipole-bonddipole Real energy:                 0.00000
	Host/Adsorbate bondipole-bonddipole Fourier energy:              0.00000

Host/Cation energy:                                              0.00000
	Host/Cation VDW energy:                                          0.00000
	Host/Cation Coulomb energy:                                      0.00000
	Host/Cation charge-charge Real energy:                           0.00000
	Host/Cation charge-charge Fourier energy:                        0.00000
	Host/Cation charge-bonddipole Real energy:                       0.00000
	Host/Cation charge-bonddipole Fourier energy:                    0.00000
	Host/Cation bondipole-bonddipole Real energy:                    0.00000
	Host/Cation bondipole-bonddipole Fourier energy:                 0.00000

Adsorbate/Adsorbate energy:                                     2886264.68351
	Adsorbate/Adsorbate VDW energy:                                 2886264.68351
	Adsorbate/Adsorbate Coulomb energy:                                   0.00000
	Adsorbate/Adsorbate charge-charge Real energy:                        0.00000
	Adsorbate/Adsorbate charge-charge Fourier energy:                     0.00000
	Adsorbate/Adsorbate charge-bonddipole Real energy:                    0.00000
	Adsorbate/Adsorbate charge-bonddipole Fourier energy:                 0.00000
	Adsorbate/Adsorbate bondipole-bonddipole Real energy:                 0.00000
	Adsorbate/Adsorbate bondipole-bonddipole Fourier energy:              0.00000

Adsorbate/Cation energy:                                              0.00000
	Adsorbate/Cation VDW energy:                                          0.00000
	Adsorbate/Cation Coulomb energy:                                      0.00000
	Adsorbate/Cation charge-charge Real energy:                           0.00000
	Adsorbate/Cation charge-charge Fourier energy:                        0.00000
	Adsorbate/Cation charge-bonddipole Real energy:                       0.00000
	Adsorbate/Cation charge-bonddipole Fourier energy:                    0.00000
	Adsorbate/Cation bondipole-bonddipole Real energy:                    0.00000
	Adsorbate/Cation bondipole-bonddipole Fourier energy:                 0.00000

Cation/Cation energy:                                              0.00000
	Cation/Cation VDW energy:                                          0.00000
	Cation/Cation Coulomb energy:                                      0.00000
	Cation/Cation charge-charge Real energy:                           0.00000
	Cation/Cation charge-charge Fourier energy:                        0.00000
	Cation/Cation charge-bonddipole Real energy:                       0.00000
	Cation/Cation charge-bonddipole Fourier energy:                    0.00000
	Cation/Cation bondipole-bonddipole Real energy:                    0.00000
	Cation/Cation bondipole-bonddipole Fourier energy:                 0.00000

Polarization energy:
	Host polarization energy:                                        0.00000
	Adsorbate polarization energy:                                   0.00000
	Cation polarization energy:                                      0.00000
	Host back-polarization energy:                                        0.00000
	Adsorbate back-polarization energy:                                   0.00000
	Cation back-polarization energy:                                      0.00000

Tail-correction energy:                                     -24158.21898

Distance constraints energy:                                     0.00000
Angle constraints energy:                                        0.00000
Dihedral constraints energy:                                     0.00000
Inversion-bend constraints energy:                               0.00000
Out-of-plane distance constraints energy:                        0.00000
Exclusion constraints energy:                                    0.00000

===================================================================
Total energy: 2892131.158353072591
	Total Van der Waals: 2886264.683513
	Total Coulomb: 0.000000

	Total Polarization: 0.000000







+++++++++++++++++++++++++++++++++++++++++++++++++++++++++++++++++++++++++
Starting simulation
+++++++++++++++++++++++++++++++++++++++++++++++++++++++++++++++++++++++++

[Init] Current cycle: 0 out of 5000
========================================================================================================

Net charge: 0 (F: 0, A: 0, C: 0)
Current Box:  27.00000   0.00000   0.00000 [A]
               0.00000  27.00000   0.00000 [A]
               0.00000   0.00000  27.00000 [A]
Box-lengths:  27.00000  27.00000  27.00000 Box-angles:   90.00000  90.00000  90.00000 [degrees]
Volume: 19683.00000 [A^3]

Amount of molecules per component:
----------------------------------------------------------------------------------------------------------------------------------------------------
Component 0 (ethane), current number of mol/uc: 300.00000, density: 761.02499 [kg/m^3]
----------------------------------------------------------------------------------------------------------------------------------------------------
Number of Framework-atoms: 0
Number of Adsorbates:      300
Number of Cations:         0

Current total potential energy:           2892131.1583530726 [K]
	Current Host-Host energy:                     0.0000000000 [K]
	Current Host-Adsorbate energy:                0.0000000000 [K]
	Current Host-Cation energy:                   0.0000000000 [K]
	Current Adsorbate-Adsorbate energy:     2886264.6835133950 [K]
	Current Cation-Cation energy:                 0.0000000000 [K]
	Current Adsorbate-Cation energy:              0.0000000000 [K]



[Init] Current cycle: 100 out of 5000
========================================================================================================

Net charge: 0 (F: 0, A: 0, C: 0)
Current Box:  31.77580   0.00000   0.00000 [A]
               0.00000  31.77580   0.00000 [A]
               0.00000   0.00000  31.77580 [A]
Box-lengths:  31.77580  31.77580  31.77580 Box-angles:   90.00000  90.00000  90.00000 [degrees]
Volume: 32084.07324 [A^3]

Amount of molecules per component:
----------------------------------------------------------------------------------------------------------------------------------------------------
Component 0 (ethane), current number of mol/uc: 318.00000, density: 494.88761 [kg/m^3]
----------------------------------------------------------------------------------------------------------------------------------------------------
Number of Framework-atoms: 0
Number of Adsorbates:      318
Number of Cations:         0

Current total potential energy:           -383821.4622430642 [K]
	Current Host-Host energy:                     0.0000000000 [K]
	Current Host-Adsorbate energy:                0.0000000000 [K]
	Current Host-Cation energy:                   0.0000000000 [K]
	Current Adsorbate-Adsorbate energy:     -397005.2677285441 [K]
	Current Cation-Cation energy:                 0.0000000000 [K]
	Current Adsorbate-Cation energy:              0.0000000000 [K]



[Init] Current cycle: 200 out of 5000
========================================================================================================

Net charge: 0 (F: 0, A: 0, C: 0)
Current Box:  31.64942   0.00000   0.00000 [A]
               0.00000  31.64942   0.00000 [A]
               0.00000   0.00000  31.64942 [A]
Box-lengths:  31.64942  31.64942  31.64942 Box-angles:   90.00000  90.00000  90.00000 [degrees]
Volume: 31702.77497 [A^3]

Amount of molecules per component:
----------------------------------------------------------------------------------------------------------------------------------------------------
Component 0 (ethane), current number of mol/uc: 324.00000, density: 510.28957 [kg/m^3]
----------------------------------------------------------------------------------------------------------------------------------------------------
Number of Framework-atoms: 0
Number of Adsorbates:      324
Number of Cations:         0

Current total potential energy:           -414995.3751640338 [K]
	Current Host-Host energy:                     0.0000000000 [K]
	Current Host-Adsorbate energy:                0.0000000000 [K]
	Current Host-Cation energy:                   0.0000000000 [K]
	Current Adsorbate-Adsorbate energy:     -424337.8765500129 [K]
	Current Cation-Cation energy:                 0.0000000000 [K]
	Current Adsorbate-Cation energy:              0.0000000000 [K]



[Init] Current cycle: 300 out of 5000
========================================================================================================

Net charge: 0 (F: 0, A: 0, C: 0)
Current Box:  31.24560   0.00000   0.00000 [A]
               0.00000  31.24560   0.00000 [A]
               0.00000   0.00000  31.24560 [A]
Box-lengths:  31.24560  31.24560  31.24560 Box-angles:   90.00000  90.00000  90.00000 [degrees]
Volume: 30504.69534 [A^3]

Amount of molecules per component:
----------------------------------------------------------------------------------------------------------------------------------------------------
Component 0 (ethane), current number of mol/uc: 321.00000, density: 525.42084 [kg/m^3]
----------------------------------------------------------------------------------------------------------------------------------------------------
Number of Framework-atoms: 0
Number of Adsorbates:      321
Number of Cations:         0

Current total potential energy:           -424345.9625138012 [K]
	Current Host-Host energy:                     0.0000000000 [K]
	Current Host-Adsorbate energy:                0.0000000000 [K]
	Current Host-Cation energy:                   0.0000000000 [K]
	Current Adsorbate-Adsorbate energy:     -432683.7818267585 [K]
	Current Cation-Cation energy:                 0.0000000000 [K]
	Current Adsorbate-Cation energy:              0.0000000000 [K]



[Init] Current cycle: 400 out of 5000
========================================================================================================

Net charge: 0 (F: 0, A: 0, C: 0)
Current Box:  30.90815   0.00000   0.00000 [A]
               0.00000  30.90815   0.00000 [A]
               0.00000   0.00000  30.90815 [A]
Box-lengths:  30.90815  30.90815  30.90815 Box-angles:   90.00000  90.00000  90.00000 [degrees]
Volume: 29526.97837 [A^3]

Amount of molecules per component:
----------------------------------------------------------------------------------------------------------------------------------------------------
Component 0 (ethane), current number of mol/uc: 311.00000, density: 525.90868 [kg/m^3]
----------------------------------------------------------------------------------------------------------------------------------------------------
Number of Framework-atoms: 0
Number of Adsorbates:      311
Number of Cations:         0

Current total potential energy:           -406098.5224918480 [K]
	Current Host-Host energy:                     0.0000000000 [K]
	Current Host-Adsorbate energy:                0.0000000000 [K]
	Current Host-Cation energy:                   0.0000000000 [K]
	Current Adsorbate-Adsorbate energy:     -416287.5921374197 [K]
	Current Cation-Cation energy:                 0.0000000000 [K]
	Current Adsorbate-Cation energy:              0.0000000000 [K]



[Init] Current cycle: 500 out of 5000
========================================================================================================

Net charge: 0 (F: 0, A: 0, C: 0)
Current Box:  31.02199   0.00000   0.00000 [A]
               0.00000  31.02199   0.00000 [A]
               0.00000   0.00000  31.02199 [A]
Box-lengths:  31.02199  31.02199  31.02199 Box-angles:   90.00000  90.00000  90.00000 [degrees]
Volume: 29854.45579 [A^3]

Amount of molecules per component:
----------------------------------------------------------------------------------------------------------------------------------------------------
Component 0 (ethane), current number of mol/uc: 310.00000, density: 518.46744 [kg/m^3]
----------------------------------------------------------------------------------------------------------------------------------------------------
Number of Framework-atoms: 0
Number of Adsorbates:      310
Number of Cations:         0

Current total potential energy:           -401095.6937051360 [K]
	Current Host-Host energy:                     0.0000000000 [K]
	Current Host-Adsorbate energy:                0.0000000000 [K]
	Current Host-Cation energy:                   0.0000000000 [K]
	Current Adsorbate-Adsorbate energy:     -412059.5213760868 [K]
	Current Cation-Cation energy:                 0.0000000000 [K]
	Current Adsorbate-Cation energy:              0.0000000000 [K]



[Init] Current cycle: 600 out of 5000
========================================================================================================

Net charge: 0 (F: 0, A: 0, C: 0)
Current Box:  30.97052   0.00000   0.00000 [A]
               0.00000  30.97052   0.00000 [A]
               0.00000   0.00000  30.97052 [A]
Box-lengths:  30.97052  30.97052  30.97052 Box-angles:   90.00000  90.00000  90.00000 [degrees]
Volume: 29706.07732 [A^3]

Amount of molecules per component:
----------------------------------------------------------------------------------------------------------------------------------------------------
Component 0 (ethane), current number of mol/uc: 311.00000, density: 522.73796 [kg/m^3]
----------------------------------------------------------------------------------------------------------------------------------------------------
Number of Framework-atoms: 0
Number of Adsorbates:      311
Number of Cations:         0

Current total potential energy:           -400971.7109655178 [K]
	Current Host-Host energy:                     0.0000000000 [K]
	Current Host-Adsorbate energy:                0.0000000000 [K]
	Current Host-Cation energy:                   0.0000000000 [K]
	Current Adsorbate-Adsorbate energy:     -410595.2716482837 [K]
	Current Cation-Cation energy:                 0.0000000000 [K]
	Current Adsorbate-Cation energy:              0.0000000000 [K]



[Init] Current cycle: 700 out of 5000
========================================================================================================

Net charge: 0 (F: 0, A: 0, C: 0)
Current Box:  30.65953   0.00000   0.00000 [A]
               0.00000  30.65953   0.00000 [A]
               0.00000   0.00000  30.65953 [A]
Box-lengths:  30.65953  30.65953  30.65953 Box-angles:   90.00000  90.00000  90.00000 [degrees]
Volume: 28820.16911 [A^3]

Amount of molecules per component:
----------------------------------------------------------------------------------------------------------------------------------------------------
Component 0 (ethane), current number of mol/uc: 309.00000, density: 535.34150 [kg/m^3]
----------------------------------------------------------------------------------------------------------------------------------------------------
Number of Framework-atoms: 0
Number of Adsorbates:      309
Number of Cations:         0

Current total potential energy:           -412800.5072918648 [K]
	Current Host-Host energy:                     0.0000000000 [K]
	Current Host-Adsorbate energy:                0.0000000000 [K]
	Current Host-Cation energy:                   0.0000000000 [K]
	Current Adsorbate-Adsorbate energy:     -424720.5509477662 [K]
	Current Cation-Cation energy:                 0.0000000000 [K]
	Current Adsorbate-Cation energy:              0.0000000000 [K]



[Init] Current cycle: 800 out of 5000
========================================================================================================

Net charge: 0 (F: 0, A: 0, C: 0)
Current Box:  30.81524   0.00000   0.00000 [A]
               0.00000  30.81524   0.00000 [A]
               0.00000   0.00000  30.81524 [A]
Box-lengths:  30.81524  30.81524  30.81524 Box-angles:   90.00000  90.00000  90.00000 [degrees]
Volume: 29261.49538 [A^3]

Amount of molecules per component:
----------------------------------------------------------------------------------------------------------------------------------------------------
Component 0 (ethane), current number of mol/uc: 314.00000, density: 535.79923 [kg/m^3]
----------------------------------------------------------------------------------------------------------------------------------------------------
Number of Framework-atoms: 0
Number of Adsorbates:      314
Number of Cations:         0

Current total potential energy:           -424087.0204678403 [K]
	Current Host-Host energy:                     0.0000000000 [K]
	Current Host-Adsorbate energy:                0.0000000000 [K]
	Current Host-Cation energy:                   0.0000000000 [K]
	Current Adsorbate-Adsorbate energy:     -434072.8932373209 [K]
	Current Cation-Cation energy:                 0.0000000000 [K]
	Current Adsorbate-Cation energy:              0.0000000000 [K]



[Init] Current cycle: 900 out of 5000
========================================================================================================

Net charge: 0 (F: 0, A: 0, C: 0)
Current Box:  30.63931   0.00000   0.00000 [A]
               0.00000  30.63931   0.00000 [A]
               0.00000   0.00000  30.63931 [A]
Box-lengths:  30.63931  30.63931  30.63931 Box-angles:   90.00000  90.00000  90.00000 [degrees]
Volume: 28763.18541 [A^3]

Amount of molecules per component:
----------------------------------------------------------------------------------------------------------------------------------------------------
Component 0 (ethane), current number of mol/uc: 310.00000, density: 538.13801 [kg/m^3]
----------------------------------------------------------------------------------------------------------------------------------------------------
Number of Framework-atoms: 0
Number of Adsorbates:      310
Number of Cations:         0

Current total potential energy:           -414848.1920696643 [K]
	Current Host-Host energy:                     0.0000000000 [K]
	Current Host-Adsorbate energy:                0.0000000000 [K]
	Current Host-Cation energy:                   0.0000000000 [K]
	Current Adsorbate-Adsorbate energy:     -424539.9856603306 [K]
	Current Cation-Cation energy:                 0.0000000000 [K]
	Current Adsorbate-Cation energy:              0.0000000000 [K]



[Init] Current cycle: 1000 out of 5000
========================================================================================================

Net charge: 0 (F: 0, A: 0, C: 0)
Current Box:  30.67057   0.00000   0.00000 [A]
               0.00000  30.67057   0.00000 [A]
               0.00000   0.00000  30.67057 [A]
Box-lengths:  30.67057  30.67057  30.67057 Box-angles:   90.00000  90.00000  90.00000 [degrees]
Volume: 28851.30078 [A^3]

Amount of molecules per component:
----------------------------------------------------------------------------------------------------------------------------------------------------
Component 0 (ethane), current number of mol/uc: 313.00000, density: 541.68636 [kg/m^3]
----------------------------------------------------------------------------------------------------------------------------------------------------
Number of Framework-atoms: 0
Number of Adsorbates:      313
Number of Cations:         0

Current total potential energy:           -424808.3997540146 [K]
	Current Host-Host energy:                     0.0000000000 [K]
	Current Host-Adsorbate energy:                0.0000000000 [K]
	Current Host-Cation energy:                   0.0000000000 [K]
	Current Adsorbate-Adsorbate energy:     -434660.1716442794 [K]
	Current Cation-Cation energy:                 0.0000000000 [K]
	Current Adsorbate-Cation energy:              0.0000000000 [K]



[Init] Current cycle: 1100 out of 5000
========================================================================================================

Net charge: 0 (F: 0, A: 0, C: 0)
Current Box:  30.82415   0.00000   0.00000 [A]
               0.00000  30.82415   0.00000 [A]
               0.00000   0.00000  30.82415 [A]
Box-lengths:  30.82415  30.82415  30.82415 Box-angles:   90.00000  90.00000  90.00000 [degrees]
Volume: 29286.89754 [A^3]

Amount of molecules per component:
----------------------------------------------------------------------------------------------------------------------------------------------------
Component 0 (ethane), current number of mol/uc: 311.00000, density: 530.21984 [kg/m^3]
----------------------------------------------------------------------------------------------------------------------------------------------------
Number of Framework-atoms: 0
Number of Adsorbates:      311
Number of Cations:         0

Current total potential energy:           -410994.7516322818 [K]
	Current Host-Host energy:                     0.0000000000 [K]
	Current Host-Adsorbate energy:                0.0000000000 [K]
	Current Host-Cation energy:                   0.0000000000 [K]
	Current Adsorbate-Adsorbate energy:     -419897.6030079156 [K]
	Current Cation-Cation energy:                 0.0000000000 [K]
	Current Adsorbate-Cation energy:              0.0000000000 [K]



[Init] Current cycle: 1200 out of 5000
========================================================================================================

Net charge: 0 (F: 0, A: 0, C: 0)
Current Box:  30.48965   0.00000   0.00000 [A]
               0.00000  30.48965   0.00000 [A]
               0.00000   0.00000  30.48965 [A]
Box-lengths:  30.48965  30.48965  30.48965 Box-angles:   90.00000  90.00000  90.00000 [degrees]
Volume: 28343.74568 [A^3]

Amount of molecules per component:
----------------------------------------------------------------------------------------------------------------------------------------------------
Component 0 (ethane), current number of mol/uc: 312.00000, density: 549.62478 [kg/m^3]
----------------------------------------------------------------------------------------------------------------------------------------------------
Number of Framework-atoms: 0
Number of Adsorbates:      312
Number of Cations:         0

Current total potential energy:           -427221.1160641061 [K]
	Current Host-Host energy:                     0.0000000000 [K]
	Current Host-Adsorbate energy:                0.0000000000 [K]
	Current Host-Cation energy:                   0.0000000000 [K]
	Current Adsorbate-Adsorbate energy:     -433482.2684578334 [K]
	Current Cation-Cation energy:                 0.0000000000 [K]
	Current Adsorbate-Cation energy:              0.0000000000 [K]



[Init] Current cycle: 1300 out of 5000
========================================================================================================

Net charge: 0 (F: 0, A: 0, C: 0)
Current Box:  30.38948   0.00000   0.00000 [A]
               0.00000  30.38948   0.00000 [A]
               0.00000   0.00000  30.38948 [A]
Box-lengths:  30.38948  30.38948  30.38948 Box-angles:   90.00000  90.00000  90.00000 [degrees]
Volume: 28065.31466 [A^3]

Amount of molecules per component:
----------------------------------------------------------------------------------------------------------------------------------------------------
Component 0 (ethane), current number of mol/uc: 311.00000, density: 553.29842 [kg/m^3]
----------------------------------------------------------------------------------------------------------------------------------------------------
Number of Framework-atoms: 0
Number of Adsorbates:      311
Number of Cations:         0

Current total potential energy:           -429998.9220499180 [K]
	Current Host-Host energy:                     0.0000000000 [K]
	Current Host-Adsorbate energy:                0.0000000000 [K]
	Current Host-Cation energy:                   0.0000000000 [K]
	Current Adsorbate-Adsorbate energy:     -436351.9673756852 [K]
	Current Cation-Cation energy:                 0.0000000000 [K]
	Current Adsorbate-Cation energy:              0.0000000000 [K]



[Init] Current cycle: 1400 out of 5000
========================================================================================================

Net charge: 0 (F: 0, A: 0, C: 0)
Current Box:  30.46144   0.00000   0.00000 [A]
               0.00000  30.46144   0.00000 [A]
               0.00000   0.00000  30.46144 [A]
Box-lengths:  30.46144  30.46144  30.46144 Box-angles:   90.00000  90.00000  90.00000 [degrees]
Volume: 28265.14118 [A^3]

Amount of molecules per component:
----------------------------------------------------------------------------------------------------------------------------------------------------
Component 0 (ethane), current number of mol/uc: 304.00000, density: 537.02114 [kg/m^3]
----------------------------------------------------------------------------------------------------------------------------------------------------
Number of Framework-atoms: 0
Number of Adsorbates:      304
Number of Cations:         0

Current total potential energy:           -412302.5357278774 [K]
	Current Host-Host energy:                     0.0000000000 [K]
	Current Host-Adsorbate energy:                0.0000000000 [K]
	Current Host-Cation energy:                   0.0000000000 [K]
	Current Adsorbate-Adsorbate energy:     -420235.8105869353 [K]
	Current Cation-Cation energy:                 0.0000000000 [K]
	Current Adsorbate-Cation energy:              0.0000000000 [K]



[Init] Current cycle: 1500 out of 5000
========================================================================================================

Net charge: 0 (F: 0, A: 0, C: 0)
Current Box:  30.36900   0.00000   0.00000 [A]
               0.00000  30.36900   0.00000 [A]
               0.00000   0.00000  30.36900 [A]
Box-lengths:  30.36900  30.36900  30.36900 Box-angles:   90.00000  90.00000  90.00000 [degrees]
Volume: 28008.60167 [A^3]

Amount of molecules per component:
----------------------------------------------------------------------------------------------------------------------------------------------------
Component 0 (ethane), current number of mol/uc: 307.00000, density: 547.28797 [kg/m^3]
----------------------------------------------------------------------------------------------------------------------------------------------------
Number of Framework-atoms: 0
Number of Adsorbates:      307
Number of Cations:         0

Current total potential energy:           -423928.4771307618 [K]
	Current Host-Host energy:                     0.0000000000 [K]
	Current Host-Adsorbate energy:                0.0000000000 [K]
	Current Host-Cation energy:                   0.0000000000 [K]
	Current Adsorbate-Adsorbate energy:     -431996.0800376586 [K]
	Current Cation-Cation energy:                 0.0000000000 [K]
	Current Adsorbate-Cation energy:              0.0000000000 [K]



[Init] Current cycle: 1600 out of 5000
========================================================================================================

Net charge: 0 (F: 0, A: 0, C: 0)
Current Box:  30.54211   0.00000   0.00000 [A]
               0.00000  30.54211   0.00000 [A]
               0.00000   0.00000  30.54211 [A]
Box-lengths:  30.54211  30.54211  30.54211 Box-angles:   90.00000  90.00000  90.00000 [degrees]
Volume: 28490.31613 [A^3]

Amount of molecules per component:
----------------------------------------------------------------------------------------------------------------------------------------------------
Component 0 (ethane), current number of mol/uc: 305.00000, density: 534.52931 [kg/m^3]
----------------------------------------------------------------------------------------------------------------------------------------------------
Number of Framework-atoms: 0
Number of Adsorbates:      305
Number of Cations:         0

Current total potential energy:           -413529.2900078703 [K]
	Current Host-Host energy:                     0.0000000000 [K]
	Current Host-Adsorbate energy:                0.0000000000 [K]
	Current Host-Cation energy:                   0.0000000000 [K]
	Current Adsorbate-Adsorbate energy:     -421273.2750379915 [K]
	Current Cation-Cation energy:                 0.0000000000 [K]
	Current Adsorbate-Cation energy:              0.0000000000 [K]



[Init] Current cycle: 1700 out of 5000
========================================================================================================

Net charge: 0 (F: 0, A: 0, C: 0)
Current Box:  30.38066   0.00000   0.00000 [A]
               0.00000  30.38066   0.00000 [A]
               0.00000   0.00000  30.38066 [A]
Box-lengths:  30.38066  30.38066  30.38066 Box-angles:   90.00000  90.00000  90.00000 [degrees]
Volume: 28040.88275 [A^3]

Amount of molecules per component:
----------------------------------------------------------------------------------------------------------------------------------------------------
Component 0 (ethane), current number of mol/uc: 312.00000, density: 555.56115 [kg/m^3]
----------------------------------------------------------------------------------------------------------------------------------------------------
Number of Framework-atoms: 0
Number of Adsorbates:      312
Number of Cations:         0

Current total potential energy:           -432586.2174838065 [K]
	Current Host-Host energy:                     0.0000000000 [K]
	Current Host-Adsorbate energy:                0.0000000000 [K]
	Current Host-Cation energy:                   0.0000000000 [K]
	Current Adsorbate-Adsorbate energy:     -439933.4768321627 [K]
	Current Cation-Cation energy:                 0.0000000000 [K]
	Current Adsorbate-Cation energy:              0.0000000000 [K]



[Init] Current cycle: 1800 out of 5000
========================================================================================================

Net charge: 0 (F: 0, A: 0, C: 0)
Current Box:  30.60289   0.00000   0.00000 [A]
               0.00000  30.60289   0.00000 [A]
               0.00000   0.00000  30.60289 [A]
Box-lengths:  30.60289  30.60289  30.60289 Box-angles:   90.00000  90.00000  90.00000 [degrees]
Volume: 28660.72797 [A^3]

Amount of molecules per component:
----------------------------------------------------------------------------------------------------------------------------------------------------
Component 0 (ethane), current number of mol/uc: 309.00000, density: 538.31963 [kg/m^3]
----------------------------------------------------------------------------------------------------------------------------------------------------
Number of Framework-atoms: 0
Number of Adsorbates:      309
Number of Cations:         0

Current total potential energy:           -413356.4762706861 [K]
	Current Host-Host energy:                     0.0000000000 [K]
	Current Host-Adsorbate energy:                0.0000000000 [K]
	Current Host-Cation energy:                   0.0000000000 [K]
	Current Adsorbate-Adsorbate energy:     -424538.1488680361 [K]
	Current Cation-Cation energy:                 0.0000000000 [K]
	Current Adsorbate-Cation energy:              0.0000000000 [K]



[Init] Current cycle: 1900 out of 5000
========================================================================================================

Net charge: 0 (F: 0, A: 0, C: 0)
Current Box:  30.40551   0.00000   0.00000 [A]
               0.00000  30.40551   0.00000 [A]
               0.00000   0.00000  30.40551 [A]
Box-lengths:  30.40551  30.40551  30.40551 Box-angles:   90.00000  90.00000  90.00000 [degrees]
Volume: 28109.75112 [A^3]

Amount of molecules per component:
----------------------------------------------------------------------------------------------------------------------------------------------------
Component 0 (ethane), current number of mol/uc: 306.00000, density: 543.54234 [kg/m^3]
----------------------------------------------------------------------------------------------------------------------------------------------------
Number of Framework-atoms: 0
Number of Adsorbates:      306
Number of Cations:         0

Current total potential energy:           -418000.9815379725 [K]
	Current Host-Host energy:                     0.0000000000 [K]
	Current Host-Adsorbate energy:                0.0000000000 [K]
	Current Host-Cation energy:                   0.0000000000 [K]
	Current Adsorbate-Adsorbate energy:     -426435.4370306983 [K]
	Current Cation-Cation energy:                 0.0000000000 [K]
	Current Adsorbate-Cation energy:              0.0000000000 [K]



[Init] Current cycle: 2000 out of 5000
========================================================================================================

Net charge: 0 (F: 0, A: 0, C: 0)
Current Box:  30.33162   0.00000   0.00000 [A]
               0.00000  30.33162   0.00000 [A]
               0.00000   0.00000  30.33162 [A]
Box-lengths:  30.33162  30.33162  30.33162 Box-angles:   90.00000  90.00000  90.00000 [degrees]
Volume: 27905.31399 [A^3]

Amount of molecules per component:
----------------------------------------------------------------------------------------------------------------------------------------------------
Component 0 (ethane), current number of mol/uc: 306.00000, density: 547.52439 [kg/m^3]
----------------------------------------------------------------------------------------------------------------------------------------------------
Number of Framework-atoms: 0
Number of Adsorbates:      306
Number of Cations:         0

Current total potential energy:           -423257.4785796237 [K]
	Current Host-Host energy:                     0.0000000000 [K]
	Current Host-Adsorbate energy:                0.0000000000 [K]
	Current Host-Cation energy:                   0.0000000000 [K]
	Current Adsorbate-Adsorbate energy:     -431772.4397125113 [K]
	Current Cation-Cation energy:                 0.0000000000 [K]
	Current Adsorbate-Cation energy:              0.0000000000 [K]



[Init] Current cycle: 2100 out of 5000
========================================================================================================

Net charge: 0 (F: 0, A: 0, C: 0)
Current Box:  30.25789   0.00000   0.00000 [A]
               0.00000  30.25789   0.00000 [A]
               0.00000   0.00000  30.25789 [A]
Box-lengths:  30.25789  30.25789  30.25789 Box-angles:   90.00000  90.00000  90.00000 [degrees]
Volume: 27702.31554 [A^3]

Amount of molecules per component:
----------------------------------------------------------------------------------------------------------------------------------------------------
Component 0 (ethane), current number of mol/uc: 305.00000, density: 549.73416 [kg/m^3]
----------------------------------------------------------------------------------------------------------------------------------------------------
Number of Framework-atoms: 0
Number of Adsorbates:      305
Number of Cations:         0

Current total potential energy:           -417117.3987988881 [K]
	Current Host-Host energy:                     0.0000000000 [K]
	Current Host-Adsorbate energy:                0.0000000000 [K]
	Current Host-Cation energy:                   0.0000000000 [K]
	Current Adsorbate-Adsorbate energy:     -424748.0353832010 [K]
	Current Cation-Cation energy:                 0.0000000000 [K]
	Current Adsorbate-Cation energy:              0.0000000000 [K]



[Init] Current cycle: 2200 out of 5000
========================================================================================================

Net charge: 0 (F: 0, A: 0, C: 0)
Current Box:  30.31028   0.00000   0.00000 [A]
               0.00000  30.31028   0.00000 [A]
               0.00000   0.00000  30.31028 [A]
Box-lengths:  30.31028  30.31028  30.31028 Box-angles:   90.00000  90.00000  90.00000 [degrees]
Volume: 27846.46067 [A^3]

Amount of molecules per component:
----------------------------------------------------------------------------------------------------------------------------------------------------
Component 0 (ethane), current number of mol/uc: 306.00000, density: 548.68158 [kg/m^3]
----------------------------------------------------------------------------------------------------------------------------------------------------
Number of Framework-atoms: 0
Number of Adsorbates:      306
Number of Cations:         0

Current total potential energy:           -424111.3123352369 [K]
	Current Host-Host energy:                     0.0000000000 [K]
	Current Host-Adsorbate energy:                0.0000000000 [K]
	Current Host-Cation energy:                   0.0000000000 [K]
	Current Adsorbate-Adsorbate energy:     -432930.9835003854 [K]
	Current Cation-Cation energy:                 0.0000000000 [K]
	Current Adsorbate-Cation energy:              0.0000000000 [K]



[Init] Current cycle: 2300 out of 5000
========================================================================================================

Net charge: 0 (F: 0, A: 0, C: 0)
Current Box:  30.33554   0.00000   0.00000 [A]
               0.00000  30.33554   0.00000 [A]
               0.00000   0.00000  30.33554 [A]
Box-lengths:  30.33554  30.33554  30.33554 Box-angles:   90.00000  90.00000  90.00000 [degrees]
Volume: 27916.11586 [A^3]

Amount of molecules per component:
----------------------------------------------------------------------------------------------------------------------------------------------------
Component 0 (ethane), current number of mol/uc: 307.00000, density: 549.10113 [kg/m^3]
----------------------------------------------------------------------------------------------------------------------------------------------------
Number of Framework-atoms: 0
Number of Adsorbates:      307
Number of Cations:         0

Current total potential energy:           -423849.3661961479 [K]
	Current Host-Host energy:                     0.0000000000 [K]
	Current Host-Adsorbate energy:                0.0000000000 [K]
	Current Host-Cation energy:                   0.0000000000 [K]
	Current Adsorbate-Adsorbate energy:     -434213.1527576741 [K]
	Current Cation-Cation energy:                 0.0000000000 [K]
	Current Adsorbate-Cation energy:              0.0000000000 [K]



[Init] Current cycle: 2400 out of 5000
========================================================================================================

Net charge: 0 (F: 0, A: 0, C: 0)
Current Box:  30.25827   0.00000   0.00000 [A]
               0.00000  30.25827   0.00000 [A]
               0.00000   0.00000  30.25827 [A]
Box-lengths:  30.25827  30.25827  30.25827 Box-angles:   90.00000  90.00000  90.00000 [degrees]
Volume: 27703.34151 [A^3]

Amount of molecules per component:
----------------------------------------------------------------------------------------------------------------------------------------------------
Component 0 (ethane), current number of mol/uc: 303.00000, density: 546.10912 [kg/m^3]
----------------------------------------------------------------------------------------------------------------------------------------------------
Number of Framework-atoms: 0
Number of Adsorbates:      303
Number of Cations:         0

Current total potential energy:           -413064.0463951153 [K]
	Current Host-Host energy:                     0.0000000000 [K]
	Current Host-Adsorbate energy:                0.0000000000 [K]
	Current Host-Cation energy:                   0.0000000000 [K]
	Current Adsorbate-Adsorbate energy:     -424437.8834635081 [K]
	Current Cation-Cation energy:                 0.0000000000 [K]
	Current Adsorbate-Cation energy:              0.0000000000 [K]



[Init] Current cycle: 2500 out of 5000
========================================================================================================

Net charge: 0 (F: 0, A: 0, C: 0)
Current Box:  30.17511   0.00000   0.00000 [A]
               0.00000  30.17511   0.00000 [A]
               0.00000   0.00000  30.17511 [A]
Box-lengths:  30.17511  30.17511  30.17511 Box-angles:   90.00000  90.00000  90.00000 [degrees]
Volume: 27475.54881 [A^3]

Amount of molecules per component:
----------------------------------------------------------------------------------------------------------------------------------------------------
Component 0 (ethane), current number of mol/uc: 302.00000, density: 548.81949 [kg/m^3]
----------------------------------------------------------------------------------------------------------------------------------------------------
Number of Framework-atoms: 0
Number of Adsorbates:      302
Number of Cations:         0

Current total potential energy:           -419209.9413803848 [K]
	Current Host-Host energy:                     0.0000000000 [K]
	Current Host-Adsorbate energy:                0.0000000000 [K]
	Current Host-Cation energy:                   0.0000000000 [K]
	Current Adsorbate-Adsorbate energy:     -428735.5106033645 [K]
	Current Cation-Cation energy:                 0.0000000000 [K]
	Current Adsorbate-Cation energy:              0.0000000000 [K]



[Init] Current cycle: 2600 out of 5000
========================================================================================================

Net charge: 0 (F: 0, A: 0, C: 0)
Current Box:  30.32235   0.00000   0.00000 [A]
               0.00000  30.32235   0.00000 [A]
               0.00000   0.00000  30.32235 [A]
Box-lengths:  30.32235  30.32235  30.32235 Box-angles:   90.00000  90.00000  90.00000 [degrees]
Volume: 27879.71825 [A^3]

Amount of molecules per component:
----------------------------------------------------------------------------------------------------------------------------------------------------
Component 0 (ethane), current number of mol/uc: 302.00000, density: 540.86331 [kg/m^3]
----------------------------------------------------------------------------------------------------------------------------------------------------
Number of Framework-atoms: 0
Number of Adsorbates:      302
Number of Cations:         0

Current total potential energy:           -409958.4882852897 [K]
	Current Host-Host energy:                     0.0000000000 [K]
	Current Host-Adsorbate energy:                0.0000000000 [K]
	Current Host-Cation energy:                   0.0000000000 [K]
	Current Adsorbate-Adsorbate energy:     -419928.3598785833 [K]
	Current Cation-Cation energy:                 0.0000000000 [K]
	Current Adsorbate-Cation energy:              0.0000000000 [K]



[Init] Current cycle: 2700 out of 5000
========================================================================================================

Net charge: 0 (F: 0, A: 0, C: 0)
Current Box:  30.30994   0.00000   0.00000 [A]
               0.00000  30.30994   0.00000 [A]
               0.00000   0.00000  30.30994 [A]
Box-lengths:  30.30994  30.30994  30.30994 Box-angles:   90.00000  90.00000  90.00000 [degrees]
Volume: 27845.50085 [A^3]

Amount of molecules per component:
----------------------------------------------------------------------------------------------------------------------------------------------------
Component 0 (ethane), current number of mol/uc: 300.00000, density: 537.94166 [kg/m^3]
----------------------------------------------------------------------------------------------------------------------------------------------------
Number of Framework-atoms: 0
Number of Adsorbates:      300
Number of Cations:         0

Current total potential energy:           -399935.6422361974 [K]
	Current Host-Host energy:                     0.0000000000 [K]
	Current Host-Adsorbate energy:                0.0000000000 [K]
	Current Host-Cation energy:                   0.0000000000 [K]
	Current Adsorbate-Adsorbate energy:     -410061.7664018651 [K]
	Current Cation-Cation energy:                 0.0000000000 [K]
	Current Adsorbate-Cation energy:              0.0000000000 [K]



[Init] Current cycle: 2800 out of 5000
========================================================================================================

Net charge: 0 (F: 0, A: 0, C: 0)
Current Box:  30.31723   0.00000   0.00000 [A]
               0.00000  30.31723   0.00000 [A]
               0.00000   0.00000  30.31723 [A]
Box-lengths:  30.31723  30.31723  30.31723 Box-angles:   90.00000  90.00000  90.00000 [degrees]
Volume: 27865.60049 [A^3]

Amount of molecules per component:
----------------------------------------------------------------------------------------------------------------------------------------------------
Component 0 (ethane), current number of mol/uc: 297.00000, density: 532.17810 [kg/m^3]
----------------------------------------------------------------------------------------------------------------------------------------------------
Number of Framework-atoms: 0
Number of Adsorbates:      297
Number of Cations:         0

Current total potential energy:           -394111.1897165916 [K]
	Current Host-Host energy:                     0.0000000000 [K]
	Current Host-Adsorbate energy:                0.0000000000 [K]
	Current Host-Cation energy:                   0.0000000000 [K]
	Current Adsorbate-Adsorbate energy:     -404057.4911045366 [K]
	Current Cation-Cation energy:                 0.0000000000 [K]
	Current Adsorbate-Cation energy:              0.0000000000 [K]



[Init] Current cycle: 2900 out of 5000
========================================================================================================

Net charge: 0 (F: 0, A: 0, C: 0)
Current Box:  30.08937   0.00000   0.00000 [A]
               0.00000  30.08937   0.00000 [A]
               0.00000   0.00000  30.08937 [A]
Box-lengths:  30.08937  30.08937  30.08937 Box-angles:   90.00000  90.00000  90.00000 [degrees]
Volume: 27242.01218 [A^3]

Amount of molecules per component:
----------------------------------------------------------------------------------------------------------------------------------------------------
Component 0 (ethane), current number of mol/uc: 293.00000, density: 537.02857 [kg/m^3]
----------------------------------------------------------------------------------------------------------------------------------------------------
Number of Framework-atoms: 0
Number of Adsorbates:      293
Number of Cations:         0

Current total potential energy:           -397849.7283365280 [K]
	Current Host-Host energy:                     0.0000000000 [K]
	Current Host-Adsorbate energy:                0.0000000000 [K]
	Current Host-Cation energy:                   0.0000000000 [K]
	Current Adsorbate-Adsorbate energy:     -406693.5872218437 [K]
	Current Cation-Cation energy:                 0.0000000000 [K]
	Current Adsorbate-Cation energy:              0.0000000000 [K]



[Init] Current cycle: 3000 out of 5000
========================================================================================================

Net charge: 0 (F: 0, A: 0, C: 0)
Current Box:  30.21541   0.00000   0.00000 [A]
               0.00000  30.21541   0.00000 [A]
               0.00000   0.00000  30.21541 [A]
Box-lengths:  30.21541  30.21541  30.21541 Box-angles:   90.00000  90.00000  90.00000 [degrees]
Volume: 27585.78990 [A^3]

Amount of molecules per component:
----------------------------------------------------------------------------------------------------------------------------------------------------
Component 0 (ethane), current number of mol/uc: 299.00000, density: 541.19618 [kg/m^3]
----------------------------------------------------------------------------------------------------------------------------------------------------
Number of Framework-atoms: 0
Number of Adsorbates:      299
Number of Cations:         0

Current total potential energy:           -406871.4859735206 [K]
	Current Host-Host energy:                     0.0000000000 [K]
	Current Host-Adsorbate energy:                0.0000000000 [K]
	Current Host-Cation energy:                   0.0000000000 [K]
	Current Adsorbate-Adsorbate energy:     -416927.4404582203 [K]
	Current Cation-Cation energy:                 0.0000000000 [K]
	Current Adsorbate-Cation energy:              0.0000000000 [K]



[Init] Current cycle: 3100 out of 5000
========================================================================================================

Net charge: 0 (F: 0, A: 0, C: 0)
Current Box:  30.11422   0.00000   0.00000 [A]
               0.00000  30.11422   0.00000 [A]
               0.00000   0.00000  30.11422 [A]
Box-lengths:  30.11422  30.11422  30.11422 Box-angles:   90.00000  90.00000  90.00000 [degrees]
Volume: 27309.57643 [A^3]

Amount of molecules per component:
----------------------------------------------------------------------------------------------------------------------------------------------------
[...]
	Block[ 4]            0.00000 [K]
	------------------------------------------------------------------------------
	Average              0.00000 [K] +/-            0.00000 [K]

Average Adsorbate Intra charge-charge Coulomb energy:
=======================================
	Block[ 0]            0.00000 [K]
	Block[ 1]            0.00000 [K]
	Block[ 2]            0.00000 [K]
	Block[ 3]            0.00000 [K]
	Block[ 4]            0.00000 [K]
	------------------------------------------------------------------------------
	Average              0.00000 [K] +/-            0.00000 [K]

Average Adsorbate Intra charge-bonddipole Coulomb energy:
=======================================
	Block[ 0]            0.00000 [K]
	Block[ 1]            0.00000 [K]
	Block[ 2]            0.00000 [K]
	Block[ 3]            0.00000 [K]
	Block[ 4]            0.00000 [K]
	------------------------------------------------------------------------------
	Average              0.00000 [K] +/-            0.00000 [K]

Average Adsorbate Intra bonddipole-bonddipole Coulomb energy:
=======================================
	Block[ 0]            0.00000 [K]
	Block[ 1]            0.00000 [K]
	Block[ 2]            0.00000 [K]
	Block[ 3]            0.00000 [K]
	Block[ 4]            0.00000 [K]
	------------------------------------------------------------------------------
	Average              0.00000 [K] +/-            0.00000 [K]

Average Cation Bond stretch energy:
=================================
	Block[ 0]            0.00000 [K]
	Block[ 1]            0.00000 [K]
	Block[ 2]            0.00000 [K]
	Block[ 3]            0.00000 [K]
	Block[ 4]            0.00000 [K]
	------------------------------------------------------------------------------
	Average              0.00000 [K] +/-            0.00000 [K]

Average Cation UreyBradley stretch energy:
==========================================
	Block[ 0]            0.00000 [K]
	Block[ 1]            0.00000 [K]
	Block[ 2]            0.00000 [K]
	Block[ 3]            0.00000 [K]
	Block[ 4]            0.00000 [K]
	------------------------------------------------------------------------------
	Average              0.00000 [K] +/-            0.00000 [K]

Average Cation Bend angle energy:
=================================
	Block[ 0]            0.00000 [K]
	Block[ 1]            0.00000 [K]
	Block[ 2]            0.00000 [K]
	Block[ 3]            0.00000 [K]
	Block[ 4]            0.00000 [K]
	------------------------------------------------------------------------------
	Average              0.00000 [K] +/-            0.00000 [K]

Average Cation Bend angle inversion energy:
===========================================
	Block[ 0]            0.00000 [K]
	Block[ 1]            0.00000 [K]
	Block[ 2]            0.00000 [K]
	Block[ 3]            0.00000 [K]
	Block[ 4]            0.00000 [K]
	------------------------------------------------------------------------------
	Average              0.00000 [K] +/-            0.00000 [K]

Average Cation Torsion energy:
==============================
	Block[ 0]            0.00000 [K]
	Block[ 1]            0.00000 [K]
	Block[ 2]            0.00000 [K]
	Block[ 3]            0.00000 [K]
	Block[ 4]            0.00000 [K]
	------------------------------------------------------------------------------
	Average              0.00000 [K] +/-            0.00000 [K]

Average Cation Improper Torsion energy:
=======================================
	Block[ 0]            0.00000 [K]
	Block[ 1]            0.00000 [K]
	Block[ 2]            0.00000 [K]
	Block[ 3]            0.00000 [K]
	Block[ 4]            0.00000 [K]
	------------------------------------------------------------------------------
	Average              0.00000 [K] +/-            0.00000 [K]

Average Cation Bond-Bond cross term energy:
=================================================
	Block[ 0]            0.00000 [K]
	Block[ 1]            0.00000 [K]
	Block[ 2]            0.00000 [K]
	Block[ 3]            0.00000 [K]
	Block[ 4]            0.00000 [K]
	------------------------------------------------------------------------------
	Average              0.00000 [K] +/-            0.00000 [K]

Average Cation Bend-Bend cross term energy:
===========================================
	Block[ 0]            0.00000 [K]
	Block[ 1]            0.00000 [K]
	Block[ 2]            0.00000 [K]
	Block[ 3]            0.00000 [K]
	Block[ 4]            0.00000 [K]
	------------------------------------------------------------------------------
	Average              0.00000 [K] +/-            0.00000 [K]

Average Cation Bond-Bend cross term energy:
==============================================
	Block[ 0]            0.00000 [K]
	Block[ 1]            0.00000 [K]
	Block[ 2]            0.00000 [K]
	Block[ 3]            0.00000 [K]
	Block[ 4]            0.00000 [K]
	------------------------------------------------------------------------------
	Average              0.00000 [K] +/-            0.00000 [K]

Average Cation Bond-Torsion cross term energy:
==============================================
	Block[ 0]            0.00000 [K]
	Block[ 1]            0.00000 [K]
	Block[ 2]            0.00000 [K]
	Block[ 3]            0.00000 [K]
	Block[ 4]            0.00000 [K]
	------------------------------------------------------------------------------
	Average              0.00000 [K] +/-            0.00000 [K]

Average Cation Bend-Torsion cross term energy:
==============================================
	Block[ 0]            0.00000 [K]
	Block[ 1]            0.00000 [K]
	Block[ 2]            0.00000 [K]
	Block[ 3]            0.00000 [K]
	Block[ 4]            0.00000 [K]
	------------------------------------------------------------------------------
	Average              0.00000 [K] +/-            0.00000 [K]

Average Cation Intra Van der Waals energy:
==========================================
	Block[ 0]            0.00000 [K]
	Block[ 1]            0.00000 [K]
	Block[ 2]            0.00000 [K]
	Block[ 3]            0.00000 [K]
	Block[ 4]            0.00000 [K]
	------------------------------------------------------------------------------
	Average              0.00000 [K] +/-            0.00000 [K]

Average Cation Intra charge-charge Coulomb energy:
====================================
	Block[ 0]            0.00000 [K]
	Block[ 1]            0.00000 [K]
	Block[ 2]            0.00000 [K]
	Block[ 3]            0.00000 [K]
	Block[ 4]            0.00000 [K]
	------------------------------------------------------------------------------
	Average              0.00000 [K] +/-            0.00000 [K]

Average Cation Intra charge-bonddipole Coulomb energy:
====================================
	Block[ 0]            0.00000 [K]
	Block[ 1]            0.00000 [K]
	Block[ 2]            0.00000 [K]
	Block[ 3]            0.00000 [K]
	Block[ 4]            0.00000 [K]
	------------------------------------------------------------------------------
	Average              0.00000 [K] +/-            0.00000 [K]

Average Cation Intra bonddipole-bonddipole Coulomb energy:
====================================
	Block[ 0]            0.00000 [K]
	Block[ 1]            0.00000 [K]
	Block[ 2]            0.00000 [K]
	Block[ 3]            0.00000 [K]
	Block[ 4]            0.00000 [K]
	------------------------------------------------------------------------------
	Average              0.00000 [K] +/-            0.00000 [K]

Average Host-Host energy:
=========================
	Block[ 0] 0.00000            Van der Waals: 0.00000            Coulomb: 0.00000            [K]
	Block[ 1] 0.00000            Van der Waals: 0.00000            Coulomb: 0.00000            [K]
	Block[ 2] 0.00000            Van der Waals: 0.00000            Coulomb: 0.00000            [K]
	Block[ 3] 0.00000            Van der Waals: 0.00000            Coulomb: 0.00000            [K]
	Block[ 4] 0.00000            Van der Waals: 0.00000            Coulomb: 0.00000            [K]
	------------------------------------------------------------------------------
	Average   0.00000            Van der Waals: 0.000000           Coulomb: 0.00000            [K]
	      +/- 0.00000                       +/- 0.000000                +/- 0.00000            [K]

Average Adsorbate-Adsorbate energy:
===================================
	Block[ 0] -420551.18930      Van der Waals: -420551.18930      Coulomb: 0.00000            [K]
	Block[ 1] -416173.28639      Van der Waals: -416173.28639      Coulomb: 0.00000            [K]
	Block[ 2] -419542.05139      Van der Waals: -419542.05139      Coulomb: 0.00000            [K]
	Block[ 3] -422114.81588      Van der Waals: -422114.81588      Coulomb: 0.00000            [K]
	Block[ 4] -409035.77262      Van der Waals: -409035.77262      Coulomb: 0.00000            [K]
	------------------------------------------------------------------------------
	Average   -417483.42312      Van der Waals: -417483.423115     Coulomb: 0.00000            [K]
	      +/- 9302.82520                    +/- 9302.825199             +/- 0.00000            [K]

Average Cation-Cation energy:
=============================
	Block[ 0] 0.00000            Van der Waals: 0.00000            Coulomb: 0.00000            [K]
	Block[ 1] 0.00000            Van der Waals: 0.00000            Coulomb: 0.00000            [K]
	Block[ 2] 0.00000            Van der Waals: 0.00000            Coulomb: 0.00000            [K]
	Block[ 3] 0.00000            Van der Waals: 0.00000            Coulomb: 0.00000            [K]
	Block[ 4] 0.00000            Van der Waals: 0.00000            Coulomb: 0.00000            [K]
	------------------------------------------------------------------------------
	Average   0.00000            Van der Waals: 0.000000           Coulomb: 0.00000            [K]
	      +/- 0.00000                       +/- 0.000000                +/- 0.00000            [K]

Average Host-Adsorbate energy:
==============================
	Block[ 0] 0.00000            Van der Waals: 0.00000            Coulomb: 0.00000            [K]
	Block[ 1] 0.00000            Van der Waals: 0.00000            Coulomb: 0.00000            [K]
	Block[ 2] 0.00000            Van der Waals: 0.00000            Coulomb: 0.00000            [K]
	Block[ 3] 0.00000            Van der Waals: 0.00000            Coulomb: 0.00000            [K]
	Block[ 4] 0.00000            Van der Waals: 0.00000            Coulomb: 0.00000            [K]
	------------------------------------------------------------------------------
	Average   0.00000            Van der Waals: 0.000000           Coulomb: 0.00000            [K]
	      +/- 0.00000                       +/- 0.000000                +/- 0.00000            [K]

Average Host-Cation energy:
===========================
	Block[ 0] 0.00000            Van der Waals: 0.00000            Coulomb: 0.00000            [K]
	Block[ 1] 0.00000            Van der Waals: 0.00000            Coulomb: 0.00000            [K]
	Block[ 2] 0.00000            Van der Waals: 0.00000            Coulomb: 0.00000            [K]
	Block[ 3] 0.00000            Van der Waals: 0.00000            Coulomb: 0.00000            [K]
	Block[ 4] 0.00000            Van der Waals: 0.00000            Coulomb: 0.00000            [K]
	------------------------------------------------------------------------------
	Average   0.00000            Van der Waals: 0.000000           Coulomb: 0.00000            [K]
	      +/- 0.00000                       +/- 0.000000                +/- 0.00000            [K]

Average Adsorbate-Cation energy:
================================
	Block[ 0] 0.00000            Van der Waals: 0.00000            Coulomb: 0.00000            [K]
	Block[ 1] 0.00000            Van der Waals: 0.00000            Coulomb: 0.00000            [K]
	Block[ 2] 0.00000            Van der Waals: 0.00000            Coulomb: 0.00000            [K]
	Block[ 3] 0.00000            Van der Waals: 0.00000            Coulomb: 0.00000            [K]
	Block[ 4] 0.00000            Van der Waals: 0.00000            Coulomb: 0.00000            [K]
	------------------------------------------------------------------------------
	Average   0.00000            Van der Waals: 0.000000           Coulomb: 0.00000            [K]
	      +/- 0.00000                       +/- 0.000000                +/- 0.00000            [K]

Host polarization energy:
=======================
	Block[ 0]            0.00000 [K]
	Block[ 1]            0.00000 [K]
	Block[ 2]            0.00000 [K]
	Block[ 3]            0.00000 [K]
	Block[ 4]            0.00000 [K]
	------------------------------------------------------------------------------
	Average              0.00000 [K] +/-            0.00000 [K]

Adsorbate polarization energy:
=======================
	Block[ 0]            0.00000 [K]
	Block[ 1]            0.00000 [K]
	Block[ 2]            0.00000 [K]
	Block[ 3]            0.00000 [K]
	Block[ 4]            0.00000 [K]
	------------------------------------------------------------------------------
	Average              0.00000 [K] +/-            0.00000 [K]

Cation polarization energy:
=======================
	Block[ 0]            0.00000 [K]
	Block[ 1]            0.00000 [K]
	Block[ 2]            0.00000 [K]
	Block[ 3]            0.00000 [K]
	Block[ 4]            0.00000 [K]
	------------------------------------------------------------------------------
	Average              0.00000 [K] +/-            0.00000 [K]

Host back-polarization energy:
=======================
	Block[ 0]            0.00000 [K]
	Block[ 1]            0.00000 [K]
	Block[ 2]            0.00000 [K]
	Block[ 3]            0.00000 [K]
	Block[ 4]            0.00000 [K]
	------------------------------------------------------------------------------
	Average              0.00000 [K] +/-            0.00000 [K]

Adsorbate back-polarization energy:
=======================
	Block[ 0]            0.00000 [K]
	Block[ 1]            0.00000 [K]
	Block[ 2]            0.00000 [K]
	Block[ 3]            0.00000 [K]
	Block[ 4]            0.00000 [K]
	------------------------------------------------------------------------------
	Average              0.00000 [K] +/-            0.00000 [K]

Cation back-polarization energy:
=======================
	Block[ 0]            0.00000 [K]
	Block[ 1]            0.00000 [K]
	Block[ 2]            0.00000 [K]
	Block[ 3]            0.00000 [K]
	Block[ 4]            0.00000 [K]
	------------------------------------------------------------------------------
	Average              0.00000 [K] +/-            0.00000 [K]

Tail-correction energy:
=======================
	Block[ 0]       -17369.28554 [K]
	Block[ 1]       -17185.12755 [K]
	Block[ 2]       -17316.61747 [K]
	Block[ 3]       -17372.61363 [K]
	Block[ 4]       -16876.15771 [K]
	------------------------------------------------------------------------------
	Average         -17223.96038 [K] +/-          373.39224 [K]

Distance-constraints energy:
=======================
	Block[ 0]            0.00000 [K]
	Block[ 1]            0.00000 [K]
	Block[ 2]            0.00000 [K]
	Block[ 3]            0.00000 [K]
	Block[ 4]            0.00000 [K]
	------------------------------------------------------------------------------
	Average              0.00000 [K] +/-            0.00000 [K]

Angle-constraints energy:
=======================
	Block[ 0]            0.00000 [K]
	Block[ 1]            0.00000 [K]
	Block[ 2]            0.00000 [K]
	Block[ 3]            0.00000 [K]
	Block[ 4]            0.00000 [K]
	------------------------------------------------------------------------------
	Average              0.00000 [K] +/-            0.00000 [K]

Dihedral-constraints energy:
=======================
	Block[ 0]            0.00000 [K]
	Block[ 1]            0.00000 [K]
	Block[ 2]            0.00000 [K]
	Block[ 3]            0.00000 [K]
	Block[ 4]            0.00000 [K]
	------------------------------------------------------------------------------
	Average              0.00000 [K] +/-            0.00000 [K]

Inversion-bend constraints energy:
=======================
	Block[ 0]            0.00000 [K]
	Block[ 1]            0.00000 [K]
	Block[ 2]            0.00000 [K]
	Block[ 3]            0.00000 [K]
	Block[ 4]            0.00000 [K]
	------------------------------------------------------------------------------
	Average              0.00000 [K] +/-            0.00000 [K]

Out-of-plane-distance constraints energy:
=======================
	Block[ 0]            0.00000 [K]
	Block[ 1]            0.00000 [K]
	Block[ 2]            0.00000 [K]
	Block[ 3]            0.00000 [K]
	Block[ 4]            0.00000 [K]
	------------------------------------------------------------------------------
	Average              0.00000 [K] +/-            0.00000 [K]

Exclusion-constraints energy:
=======================
	Block[ 0]            0.00000 [K]
	Block[ 1]            0.00000 [K]
	Block[ 2]            0.00000 [K]
	Block[ 3]            0.00000 [K]
	Block[ 4]            0.00000 [K]
	------------------------------------------------------------------------------
	Average              0.00000 [K] +/-            0.00000 [K]

Total energy:
=============
	Block[ 0]      -408413.83535 [K]
	Block[ 1]      -406168.46022 [K]
	Block[ 2]      -408142.18148 [K]
	Block[ 3]      -413992.85611 [K]
	Block[ 4]      -398831.23419 [K]
	------------------------------------------------------------------------------
	Average        -407109.71347 [K] +/-         9780.12489 [K]

Number of molecules:
====================

Component 0 [ethane]
-------------------------------------------------------------
	Block[ 0] 303.30950          [-]
	Block[ 1] 297.66200          [-]
	Block[ 2] 301.51550          [-]
	Block[ 3] 300.81300          [-]
	Block[ 4] 293.91400          [-]
	------------------------------------------------------------------------------
	Average                                    299.4428000000 +/-       6.6250301313 [-]
	Average loading absolute [molecules/unit cell]      299.4428000000 +/-       6.6250301313 [-]
	Average loading absolute [mol/kg framework]                   inf +/-                inf [-]
	Average loading absolute [milligram/gram framework]                   inf +/-                inf [-]
	Average loading absolute [cm^3 (STP)/gr framework]                   inf +/-                inf [-]
	Average loading absolute [cm^3 (STP)/cm^3 framework]        566.2268884162 +/-      12.5275017362 [-]

	Block[ 0] 303.30950          [-]
	Block[ 1] 297.66200          [-]
	Block[ 2] 301.51550          [-]
	Block[ 3] 300.81300          [-]
	Block[ 4] 293.91400          [-]
	------------------------------------------------------------------------------
	Average                                    299.4428000000 +/-       6.6250301313 [-]
	Average loading excess [molecules/unit cell]      299.4428000000 +/-       6.6250301313 [-]
	Average loading excess [mol/kg framework]                   inf +/-                inf [-]
	Average loading excess [milligram/gram framework]                   inf +/-                inf [-]
	Average loading excess [cm^3 (STP)/gr framework]                   inf +/-                inf [-]
	Average loading excess [cm^3 (STP)/cm^3 framework]        566.2268884162 +/-      12.5275017362 [-]


Average Widom Rosenbluth factor:
================================
	Block[ 0] 0 [-]
	Block[ 1] 0 [-]
	Block[ 2] 0 [-]
	Block[ 3] 0 [-]
	Block[ 4] 0 [-]
	------------------------------------------------------------------------------
	[ethane] Average Widom:   0 +/- 0.000000 [-]

Average Henry coefficient:
==========================
	Block[ 0] 0 [mol/kg/Pa]
	Block[ 1] 0 [mol/kg/Pa]
	Block[ 2] 0 [mol/kg/Pa]
	Block[ 3] 0 [mol/kg/Pa]
	Block[ 4] 0 [mol/kg/Pa]
	------------------------------------------------------------------------------
	[ethane] Average Henry coefficient:  0 +/- 0 [mol/kg/Pa]

Average adsorption energy <U_gh>_1-<U_h>_0 obtained from Widom-insertion:
(Note: the total heat of adsorption is dH=<U_gh>_1-<U_h>_0 - <U_g> - RT)
=========================================================================

Simulation finished,  0 warnings
