Compiler and run-time data
===========================================================================
RASPA 0.99-470
Compiled as a 64-bits application
Compiler: gcc 4.2.1 (Apple Inc. build 5666) (dot 3)
Compile Date = Jun 22 2011, Compile Time = 15:50:21

Thu Jun 23 10:03:04 2011
Simulation started on Thursday, June 23.
The start time was 10:03 AM.

Cpu data:    x86_64
Cpu Model:   MacBookPro6,2
Host name:   Davids-MacBook-Pro.local
OS release:  10.7.0
OS type:     Darwin
OS version:  10J869


Simulation
===========================================================================
Dimensions: 3
Random number seed: 1308816184
RASPA directory set to: /Users/dubbelda/RASPA/simulations/
Number of cycles: 100000
Number of initializing cycles: 1000
Number of equilibration cycles: 10000
Print every: 5000

Mutual consistent basic set of units:
======================================
Unit of temperature: Kelvin
Unit of length:      1e-10 [m]
Unit of time:        1e-12 [s]
Unit of mass:        1.66054e-27 [kg]
Unit of charge:      1.60218e-19 [C/particle]

Derived units and their conversion factors:
===========================================
Unit of energy:              1.66054e-23 [J]
Unit of force:               1.66054e-13 [N]
Unit of pressure:            1.66054e+07 [Pa]
Unit of velocity:            100 [m/s]
Unit of acceleration:        1e-08 [m^2/s]
Unit of diffusion:           1e-08 [m^2/s]
Unit of dipole moment:       1.60218e-29 [C.m]
Unit of electric potential:  0.000103643 [V]
Unit of electric field:      1.03643e+06 [V]
Unit of polarizability:      1.54587e-35 [-]
Unit of Coulomb potential:   167101.0800066561  [K]
Unit of dielectric constant: 0.0000154587       [s^2 C^2/(kg m^3)]
Unit of wave vectors:        5.3088374589       [cm^1]
Boltzmann constant:          0.8314464919       [-]

Internal conversion factors:
===========================================
Energy to Kelvin:                                    1.2027242847
FH correction factor                                 2.0211930949
Heat capacity conversion factor:                    10.0000088723
From Debye to internal units:                        4.8032067991
Isothermal compressibility conversion factor:        0.0000000602

Energy conversion factors:
===========================================
From mdyne/A to kcal/mol/A^2:           143.933
From mdyne/A to kj/mol/A^2:             602.214
From mdyne/A to K/A^2:                  72429.7
From mdyne A/rad^2 to kcal/mol/deg^2:   0.0438444


Timestep: 0.000500
Initialization Ensemble: NVT (constant number of particles N, constant volume V, constant average temperature T)
Production run ensemble: NVT (constant number of particles N, constant volume V, constant average temperature T)
	Degrees of freedom:                        96
	Translational Degrees of freedom:          48
	Rotational Degrees of freedom:             48
	Degrees of freedom Framework:              0


Properties computed
===========================================================================
Movies: no
Radial Distribution Function: no
Number of molecules GCMC histogram: no
Histogram of the molecule positions: no
Free energy profiles: no
Pore Size Distribution Function: no
End-to-end distance: no
Histogram of the energy of the system: no
Compute thermodynamic factors: no
Framework spacing histograms: no
Residence times histograms: no
Distance histograms: no
Bend Angle histograms: no
Dihedral angle histograms: no
Angle between planes histograms: no
Molecule properties: no
Infra-red spectra: no
Mean-squared displacement using modified order-N algorithm: no
Velocity-autocorrelation function modified order-N algorithm: no
Rotational velocity-autocorrelation function modified order-N algorithm: no
Molecular orientation-autocorrelation function modified order-N algorithm: no
Mean-squared displacement (conventional algorithm): no
Velocity-autocorrelation function (conventional algorithm): no
3D density grid for adsorbates: no
Compute cation an/or adsorption sites: no
dcTST snapshots: no
Compute pressure and stress: no


Thermo/Baro-stat NHC parameters
===========================================================================
External temperature: 298.000000 [K]
Beta: 0.004036 [energy unit]
External Pressure: 0.000000 [Pa]


Thermostat chain-length: 3
Timescale parameter for thermostat: 0.150000 [ps]
Barostat chain-length:   3
Timescale parameter for barostat:   0.150000 [ps]

Number of Yoshida-Suzuki decomposition steps: 5
Number of respa steps: 5


Method and settings for electrostatics
===============================================================================
Dielectric constant of the medium : 1.000000
Ewald summation is used (exact solution of a periodic system)
Relative precision                : 1e-06
Alpha convergence parameter       : 0.265058
kvec (x,y,z)                      : 7 7 7


Rattle parameters
===========================================================================
Distance constraint type: r^2-r^2_0
Bend angle constraint type: theta-theta_0
Dihedral angle constraint type: phi-phi_0
Inversion-bend angle constraint type: chi-chi_0
Out-of-plane distance constraint type: r-r_0


Spectra parameters
===========================================================================
Compute normal modes: no


Minimization parameters
===========================================================================
Generalized coordinates are: Cartesian center-of-mass, elements of the orientational matrix p1,p2,p3 and strain
Potential derivatives are evaluated: analytically
Translation of the system is removed from the generalized Hessian: no
Rotation of the system is removed from the generalized Hessian: no
Maximum step-length: 0.3
Convergence factor: 1
Maximum number of minimization steps: 10000
Use gradients in the line-minimizations: yes
RMS gradient tolerance: 1e-06
Maximum gradient tolerance: 1e-06

Distance constraints: 0
Angle constraints: 0
Dihedral constraints: 0

Improper dihedral constraints: 0

Inversion-bend constraints: 0

Out-of-plane constraints: 0

Harmonic distance constraints: 0
Harmonic angle constraints: 0
Harmonic dihedral constraints: 0

Dihedral mid-point measurements: 0

All framework atoms are fixed

Fixed adsorbate atoms:  
Fixed adsorbate groups (center-of-mass):  
Fixed adsorbate groups (orientation):  

Fixed cation atoms:  
Fixed cation groups (center-of-mass):  
Fixed cation groups (orientation):  


dcTST parameters
===========================================================================
Free energy profiles computed: no
Free energy profiles written every 5000 cycles
Free energy mapping: mapped to x-coordinate
BarrierPosition:       0.0000000000       0.0000000000       0.0000000000
BarrierNormal:         0.0000000000       0.0000000000       0.0000000000
Start with a molecule on top of the barrier: no
Maximum distance to barrier (e.g. distance to minumum free energy):       0.0000000000 [A]
Maximum trajectory time:      10.0000000000 [ps]
Each configuration is used with 5 different initial velocities


Cbmc parameters
===========================================================================
Biasing method: using only the VDW part
Number of trial positions:                             10
Number of trial positions coupled Torsion-selection:   100
Number of trial position for the first bead:           10
Number of trial moves per open bead:                   150
Target acceptance ratio small-mc scheme:               0.400000
Energy overlap criteria:                               100000
Minimal Rosenbluth factor:                             1e-150


Pseudo atoms: 39
===========================================================================
Pseudo Atom[   0] Name UNIT     Oxydation:          Element: H    pdb-name: H    Scat. Types:   1   1 Mass=1.000000000  B-factor:1.000   
                 Charge=1.000     Polarization=0.000    [A^3] (considered a charged atom and no polarization)  Interactions:  no
                 Anisotropic factor:    0.000 [-] (Absolute), Radius:    1.000 [A]
Pseudo Atom[   1] Name He       Oxydation:          Element: He   pdb-name: He   Scat. Types:   3   2 Mass=4.002602000  B-factor:1.000   
                 Charge=0.000     Polarization=0.000    [A^3] (considered a chargeless atom and no polarization)  Interactions: yes
                 Anisotropic factor:    0.000 [-] (Absolute), Radius:    1.000 [A]
Pseudo Atom[   2] Name Zn1      Oxydation:          Element: Zn   pdb-name: Zn   Scat. Types:  31  30 Mass=65.370000000 B-factor:1.000   
                 Charge=1.275     Polarization=0.000    [A^3] (considered a charged atom and no polarization)  Interactions: yes
                 Anisotropic factor:    0.000 [-] (Absolute), Radius:    1.600 [A]
Pseudo Atom[   3] Name O1       Oxydation:          Element: O    pdb-name: O    Scat. Types:   9   8 Mass=15.999400000 B-factor:1.000   
                 Charge=-1.500    Polarization=0.000    [A^3] (considered a charged atom and no polarization)  Interactions: yes
                 Anisotropic factor:    0.000 [-] (Absolute), Radius:    0.680 [A]
Pseudo Atom[   4] Name O2       Oxydation:          Element: O    pdb-name: O    Scat. Types:   9   8 Mass=15.999400000 B-factor:1.000   
                 Charge=-0.600    Polarization=0.000    [A^3] (considered a charged atom and no polarization)  Interactions: yes
                 Anisotropic factor:    0.000 [-] (Absolute), Radius:    0.680 [A]
Pseudo Atom[   5] Name C1       Oxydation:          Element: C    pdb-name: C    Scat. Types:   7   6 Mass=12.010700000 B-factor:1.000   
                 Charge=0.475     Polarization=0.000    [A^3] (considered a charged atom and no polarization)  Interactions: yes
                 Anisotropic factor:    0.000 [-] (Absolute), Radius:    0.720 [A]
Pseudo Atom[   6] Name C2       Oxydation:          Element: C    pdb-name: C    Scat. Types:   7   6 Mass=12.010700000 B-factor:1.000   
                 Charge=0.125     Polarization=0.000    [A^3] (considered a charged atom and no polarization)  Interactions: yes
                 Anisotropic factor:    0.000 [-] (Absolute), Radius:    0.720 [A]
Pseudo Atom[   7] Name C3       Oxydation:          Element: C    pdb-name: C    Scat. Types:   7   6 Mass=12.010700000 B-factor:1.000   
                 Charge=-0.150    Polarization=0.000    [A^3] (considered a charged atom and no polarization)  Interactions: yes
                 Anisotropic factor:    0.000 [-] (Absolute), Radius:    0.720 [A]
Pseudo Atom[   8] Name H1       Oxydation:          Element: H    pdb-name: H    Scat. Types:   1   1 Mass=1.007940000  B-factor:1.000   
                 Charge=0.150     Polarization=0.000    [A^3] (considered a charged atom and no polarization)  Interactions: yes
                 Anisotropic factor:    0.000 [-] (Absolute), Radius:    0.320 [A]
Pseudo Atom[   9] Name CH4_sp3  Oxydation:          Element: C    pdb-name: C    Scat. Types:   7   6 Mass=16.042460000 B-factor:1.000   
                 Charge=0.000     Polarization=0.000    [A^3] (considered a chargeless atom and no polarization)  Interactions: yes
                 Anisotropic factor:    0.000 [-] (Absolute), Radius:    1.000 [A]
Pseudo Atom[  10] Name CH3_sp3  Oxydation:          Element: C    pdb-name: C    Scat. Types:   7   6 Mass=15.034520000 B-factor:1.000   
                 Charge=0.000     Polarization=0.000    [A^3] (considered a chargeless atom and no polarization)  Interactions: yes
                 Anisotropic factor:    0.000 [-] (Absolute), Radius:    1.000 [A]
Pseudo Atom[  11] Name CH2_sp3  Oxydation:          Element: C    pdb-name: C    Scat. Types:   7   6 Mass=14.026580000 B-factor:1.000   
                 Charge=0.000     Polarization=0.000    [A^3] (considered a chargeless atom and no polarization)  Interactions: yes
                 Anisotropic factor:    0.000 [-] (Absolute), Radius:    1.000 [A]
Pseudo Atom[  12] Name CH_sp3   Oxydation:          Element: C    pdb-name: C    Scat. Types:   7   6 Mass=13.018640000 B-factor:1.000   
                 Charge=0.000     Polarization=0.000    [A^3] (considered a chargeless atom and no polarization)  Interactions: yes
                 Anisotropic factor:    0.000 [-] (Absolute), Radius:    1.000 [A]
Pseudo Atom[  13] Name C_sp3    Oxydation:          Element: C    pdb-name: C    Scat. Types:   7   6 Mass=12.000000000 B-factor:1.000   
                 Charge=0.000     Polarization=0.000    [A^3] (considered a chargeless atom and no polarization)  Interactions: yes
                 Anisotropic factor:    0.000 [-] (Absolute), Radius:    1.000 [A]
Pseudo Atom[  14] Name H_h2     Oxydation:          Element: H    pdb-name: H    Scat. Types:   1   1 Mass=1.007940000  B-factor:1.000   
                 Charge=0.468     Polarization=0.000    [A^3] (considered a charged atom and no polarization)  Interactions:  no
                 Anisotropic factor:    0.000 [-] (Absolute), Radius:    0.700 [A]
Pseudo Atom[  15] Name H_com    Oxydation:          Element: H    pdb-name: H    Scat. Types:   1   1 Mass=0.000000000  B-factor:1.000   
                 Charge=-0.936    Polarization=0.000    [A^3] (considered a charged atom and no polarization)  Interactions: yes
                 Anisotropic factor:    0.000 [-] (Absolute), Radius:    0.700 [A]
Pseudo Atom[  16] Name C_co2    Oxydation:          Element: C    pdb-name: C    Scat. Types:   7   6 Mass=12.000000000 B-factor:1.000   
                 Charge=0.700     Polarization=0.000    [A^3] (considered a charged atom and no polarization)  Interactions: yes
                 Anisotropic factor:    0.000 [-] (Absolute), Radius:    0.720 [A]
Pseudo Atom[  17] Name O_co2    Oxydation:          Element: O    pdb-name: O    Scat. Types:   9   8 Mass=15.999400000 B-factor:1.000   
                 Charge=-0.350    Polarization=0.000    [A^3] (considered a charged atom and no polarization)  Interactions: yes
                 Anisotropic factor:    0.000 [-] (Absolute), Radius:    0.680 [A]
Pseudo Atom[  18] Name O_o2     Oxydation:          Element: O    pdb-name: O    Scat. Types:   9   8 Mass=15.999400000 B-factor:1.000   
                 Charge=-0.112    Polarization=0.000    [A^3] (considered a charged atom and no polarization)  Interactions:  no
                 Anisotropic factor:    0.000 [-] (Absolute), Radius:    0.700 [A]
Pseudo Atom[  19] Name O_com    Oxydation:          Element: -    pdb-name: O    Scat. Types:   0   8 Mass=0.000000000  B-factor:1.000   
                 Charge=0.224     Polarization=0.000    [A^3] (considered a charged atom and no polarization)  Interactions:  no
                 Anisotropic factor:    0.000 [-] (Absolute), Radius:    0.700 [A]
Pseudo Atom[  20] Name N_n2     Oxydation:          Element: N    pdb-name: N    Scat. Types:   8   7 Mass=14.006740000 B-factor:1.000   
                 Charge=-0.405    Polarization=0.000    [A^3] (considered a charged atom and no polarization)  Interactions: yes
                 Anisotropic factor:    0.000 [-] (Absolute), Radius:    0.700 [A]
Pseudo Atom[  21] Name N_com    Oxydation:          Element: -    pdb-name: N    Scat. Types:   0   7 Mass=0.000000000  B-factor:1.000   
                 Charge=0.810     Polarization=0.000    [A^3] (considered a charged atom and no polarization)  Interactions:  no
                 Anisotropic factor:    0.000 [-] (Absolute), Radius:    0.700 [A]
Pseudo Atom[  22] Name Ar       Oxydation:          Element: Ar   pdb-name: Ar   Scat. Types:  19  18 Mass=39.948000000 B-factor:1.000   
                 Charge=0.000     Polarization=0.000    [A^3] (considered a chargeless atom and no polarization)  Interactions: yes
                 Anisotropic factor:    0.000 [-] (Absolute), Radius:    0.700 [A]
Pseudo Atom[  23] Name Ow       Oxydation:          Element: O    pdb-name: O    Scat. Types:   9   8 Mass=15.999400000 B-factor:1.000   
                 Charge=0.000     Polarization=0.000    [A^3] (considered a chargeless atom and no polarization)  Interactions: yes
                 Anisotropic factor:    0.000 [-] (Absolute), Radius:    0.500 [A]
Pseudo Atom[  24] Name Hw       Oxydation:          Element: H    pdb-name: H    Scat. Types:   1   1 Mass=1.007940000  B-factor:1.000   
                 Charge=0.241     Polarization=0.000    [A^3] (considered a charged atom and no polarization)  Interactions:  no
                 Anisotropic factor:    0.000 [-] (Absolute), Radius:    1.000 [A]
Pseudo Atom[  25] Name Hw       Oxydation:          Element: H    pdb-name: H    Scat. Types:   1   1 Mass=1.007940000  B-factor:1.000   
                 Charge=0.241     Polarization=0.000    [A^3] (considered a charged atom and no polarization)  Interactions:  no
                 Anisotropic factor:    0.000 [-] (Absolute), Radius:    1.000 [A]
Pseudo Atom[  26] Name Lw       Oxydation:          Element: H    pdb-name: L    Scat. Types:   1   3 Mass=0.000000000  B-factor:1.000   
                 Charge=-0.241    Polarization=0.000    [A^3] (considered a charged atom and no polarization)  Interactions:  no
                 Anisotropic factor:    0.000 [-] (Absolute), Radius:    1.000 [A]
Pseudo Atom[  27] Name Lw       Oxydation:          Element: H    pdb-name: L    Scat. Types:   1   3 Mass=0.000000000  B-factor:1.000   
                 Charge=-0.241    Polarization=0.000    [A^3] (considered a charged atom and no polarization)  Interactions:  no
                 Anisotropic factor:    0.000 [-] (Absolute), Radius:    1.000 [A]
Pseudo Atom[  28] Name C_benz   Oxydation:          Element: C    pdb-name: C    Scat. Types:   7   6 Mass=12.000000000 B-factor:1.000   
                 Charge=-0.095    Polarization=0.000    [A^3] (considered a charged atom and no polarization)  Interactions: yes
                 Anisotropic factor:    0.000 [-] (Absolute), Radius:    0.700 [A]
Pseudo Atom[  29] Name H_benz   Oxydation:          Element: H    pdb-name: H    Scat. Types:   1   1 Mass=1.007940000  B-factor:1.000   
                 Charge=0.095     Polarization=0.000    [A^3] (considered a charged atom and no polarization)  Interactions: yes
                 Anisotropic factor:    0.000 [-] (Absolute), Radius:    0.320 [A]
Pseudo Atom[  30] Name N_dmf    Oxydation:          Element: N    pdb-name: N    Scat. Types:   8   7 Mass=14.006740000 B-factor:1.000   
                 Charge=-0.570    Polarization=0.000    [A^3] (considered a charged atom and no polarization)  Interactions: yes
                 Anisotropic factor:    0.000 [-] (Absolute), Radius:    0.500 [A]
Pseudo Atom[  31] Name Co_dmf   Oxydation:          Element: C    pdb-name: C    Scat. Types:   7   6 Mass=12.000000000 B-factor:1.000   
                 Charge=0.450     Polarization=0.000    [A^3] (considered a charged atom and no polarization)  Interactions: yes
                 Anisotropic factor:    0.000 [-] (Absolute), Radius:    0.520 [A]
Pseudo Atom[  32] Name Cm_dmf   Oxydation:          Element: C    pdb-name: C    Scat. Types:   7   6 Mass=12.000000000 B-factor:1.000   
                 Charge=0.280     Polarization=0.000    [A^3] (considered a charged atom and no polarization)  Interactions: yes
                 Anisotropic factor:    0.000 [-] (Absolute), Radius:    0.520 [A]
Pseudo Atom[  33] Name O_dmf    Oxydation:          Element: O    pdb-name: O    Scat. Types:   9   8 Mass=15.999400000 B-factor:1.000   
                 Charge=-0.500    Polarization=0.000    [A^3] (considered a charged atom and no polarization)  Interactions: yes
                 Anisotropic factor:    0.000 [-] (Absolute), Radius:    0.780 [A]
Pseudo Atom[  34] Name H_dmf    Oxydation:          Element: H    pdb-name: H    Scat. Types:   1   1 Mass=1.007940000  B-factor:1.000   
                 Charge=0.060     Polarization=0.000    [A^3] (considered a charged atom and no polarization)  Interactions: yes
                 Anisotropic factor:    0.000 [-] (Absolute), Radius:    0.220 [A]
Pseudo Atom[  35] Name Na       Oxydation:          Element: Na   pdb-name: Na   Scat. Types:  12  11 Mass=22.989770000 B-factor:1.000   
                 Charge=1.000     Polarization=0.000    [A^3] (considered a charged atom and no polarization)  Interactions:  no
                 Anisotropic factor:    0.000 [-] (Absolute), Radius:    1.000 [A]
Pseudo Atom[  36] Name Cl       Oxydation:          Element: Cl   pdb-name: Cl   Scat. Types:  18  17 Mass=22.989770000 B-factor:1.000   
                 Charge=-1.000    Polarization=0.000    [A^3] (considered a charged atom and no polarization)  Interactions:  no
                 Anisotropic factor:    0.000 [-] (Absolute), Radius:    1.000 [A]
Pseudo Atom[  37] Name Kr       Oxydation:          Element: Kr   pdb-name: Kr   Scat. Types:  37  36 Mass=83.798000000 B-factor:1.000   
                 Charge=0.000     Polarization=0.000    [A^3] (considered a chargeless atom and no polarization)  Interactions: yes
                 Anisotropic factor:    0.000 [-] (Absolute), Radius:    1.000 [A]
Pseudo Atom[  38] Name Xe       Oxydation:          Element: Xe   pdb-name: Xe   Scat. Types:  55  54 Mass=131.293000000 B-factor:1.000   
                 Charge=0.000     Polarization=0.000    [A^3] (considered a chargeless atom and no polarization)  Interactions: yes
                 Anisotropic factor:    0.000 [-] (Absolute), Radius:    1.000 [A]


Forcefield: Dubbeldam2007FlexibleIRMOF-1
===========================================================================
CutOff VDW : 12.000000 (144.000000)
CutOff VDW switching on: 10.800000 (116.640000)
CutOff charge-charge : 12.000000 (144.000000)
CutOff charge-charge switching on: 7.800000 (60.840000)
CutOff charge-bonddipole : 12.000000 (144.000000)
CutOff charge-bondipole switching on: 8.400000 (70.560000)
CutOff bonddipole-bonddipole : 12.000000 (144.000000)
CutOff bonddipole-bondipole switching on: 9.000000 (81.000000)
Polarization is neglected
All potentials are shifted to zero at the Cutoff

General mixing rule: Lorentz-Berthelot mixing rules are used FIRST for cross terms
0 cross terms are overwritten using the individual mixing rules from the file 'force_field_mixing_rules.def'
and then 0 terms are overwritten using the specific interactions from the file 'force_field.def'

The force field and all the interactions:
     He -      He [LENNARD_JONES] p_0/k_B:  10.90000 [K], p_1: 2.64000 [A], shift/k_B:  -0.00494280 [K], tailcorrection: no
     He -     Zn1 [LENNARD_JONES] p_0/k_B:   2.13963 [K], p_1: 2.67000 [A], shift/k_B:  -0.00103831 [K], tailcorrection: no
     He -      O1 [LENNARD_JONES] p_0/k_B:  87.34987 [K], p_1: 2.81000 [A], shift/k_B:  -0.05759716 [K], tailcorrection: no
     He -      O2 [LENNARD_JONES] p_0/k_B:  27.72093 [K], p_1: 2.87500 [A], shift/k_B:  -0.02096647 [K], tailcorrection: no
     He -      C1 [LENNARD_JONES] p_0/k_B:  22.63405 [K], p_1: 3.19000 [A], shift/k_B:  -0.03193931 [K], tailcorrection: no
     He -      C2 [LENNARD_JONES] p_0/k_B:  22.84018 [K], p_1: 3.05500 [A], shift/k_B:  -0.02486687 [K], tailcorrection: no
     He -      C3 [LENNARD_JONES] p_0/k_B:  22.84018 [K], p_1: 3.05500 [A], shift/k_B:  -0.02486687 [K], tailcorrection: no
     He -      H1 [LENNARD_JONES] p_0/k_B:   9.13154 [K], p_1: 2.74500 [A], shift/k_B:  -0.00523249 [K], tailcorrection: no
     He - CH4_sp3 [LENNARD_JONES] p_0/k_B:  41.56501 [K], p_1: 3.18000 [A], shift/k_B:  -0.05755893 [K], tailcorrection: no
     He - CH3_sp3 [LENNARD_JONES] p_0/k_B:  34.31035 [K], p_1: 3.20000 [A], shift/k_B:  -0.04933343 [K], tailcorrection: no
     He - CH2_sp3 [LENNARD_JONES] p_0/k_B:  24.70627 [K], p_1: 3.30000 [A], shift/k_B:  -0.04272436 [K], tailcorrection: no
     He -  CH_sp3 [LENNARD_JONES] p_0/k_B:  13.61249 [K], p_1: 3.65500 [A], shift/k_B:  -0.04343978 [K], tailcorrection: no
     He -   C_sp3 [LENNARD_JONES] p_0/k_B:   2.95296 [K], p_1: 4.51000 [A], shift/k_B:  -0.03319436 [K], tailcorrection: no
     He -   H_com [LENNARD_JONES] p_0/k_B:  20.00075 [K], p_1: 2.79900 [A], shift/k_B:  -0.01288149 [K], tailcorrection: no
     He -   C_co2 [LENNARD_JONES] p_0/k_B:  17.15517 [K], p_1: 2.72000 [A], shift/k_B:  -0.00930512 [K], tailcorrection: no
     He -   O_co2 [LENNARD_JONES] p_0/k_B:  29.34451 [K], p_1: 2.84500 [A], shift/k_B:  -0.02084087 [K], tailcorrection: no
     He -    N_n2 [LENNARD_JONES] p_0/k_B:  19.80909 [K], p_1: 2.97500 [A], shift/k_B:  -0.01839323 [K], tailcorrection: no
     He -      Ar [LENNARD_JONES] p_0/k_B:  36.13613 [K], p_1: 2.99000 [A], shift/k_B:  -0.03458099 [K], tailcorrection: no
     He -      Ow [LENNARD_JONES] p_0/k_B:  31.25699 [K], p_1: 2.86850 [A], shift/k_B:  -0.02332211 [K], tailcorrection: no
     He -  C_benz [LENNARD_JONES] p_0/k_B:  18.29289 [K], p_1: 3.12000 [A], shift/k_B:  -0.02259687 [K], tailcorrection: no
     He -  H_benz [LENNARD_JONES] p_0/k_B:  16.65548 [K], p_1: 2.50000 [A], shift/k_B:  -0.00544671 [K], tailcorrection: no
     He -   N_dmf [LENNARD_JONES] p_0/k_B:  29.52965 [K], p_1: 2.92000 [A], shift/k_B:  -0.02451533 [K], tailcorrection: no
     He -  Co_dmf [LENNARD_JONES] p_0/k_B:  23.34524 [K], p_1: 3.17000 [A], shift/k_B:  -0.03172333 [K], tailcorrection: no
     He -  Cm_dmf [LENNARD_JONES] p_0/k_B:  29.52965 [K], p_1: 3.22000 [A], shift/k_B:  -0.04407617 [K], tailcorrection: no
     He -   O_dmf [LENNARD_JONES] p_0/k_B:  33.01515 [K], p_1: 2.80000 [A], shift/k_B:  -0.02130904 [K], tailcorrection: no
     He -   H_dmf [LENNARD_JONES] p_0/k_B:   9.33809 [K], p_1: 2.42000 [A], shift/k_B:  -0.00251243 [K], tailcorrection: no
     He -      Kr [LENNARD_JONES] p_0/k_B:  42.58826 [K], p_1: 3.13800 [A], shift/k_B:  -0.05445543 [K], tailcorrection: no
     He -      Xe [LENNARD_JONES] p_0/k_B:  49.08055 [K], p_1: 3.37000 [A], shift/k_B:  -0.09626052 [K], tailcorrection: no
    Zn1 -     Zn1 [LENNARD_JONES] p_0/k_B:   0.42000 [K], p_1: 2.70000 [A], shift/k_B:  -0.00021795 [K], tailcorrection: no
    Zn1 -      O1 [LENNARD_JONES] p_0/k_B:  17.14643 [K], p_1: 2.84000 [A], shift/k_B:  -0.01204980 [K], tailcorrection: no
    Zn1 -      O2 [LENNARD_JONES] p_0/k_B:   5.44151 [K], p_1: 2.90500 [A], shift/k_B:  -0.00438007 [K], tailcorrection: no
    Zn1 -      C1 [LENNARD_JONES] p_0/k_B:   4.44297 [K], p_1: 3.22000 [A], shift/k_B:  -0.00663161 [K], tailcorrection: no
    Zn1 -      C2 [LENNARD_JONES] p_0/k_B:   4.48344 [K], p_1: 3.08500 [A], shift/k_B:  -0.00517594 [K], tailcorrection: no
    Zn1 -      C3 [LENNARD_JONES] p_0/k_B:   4.48344 [K], p_1: 3.08500 [A], shift/k_B:  -0.00517594 [K], tailcorrection: no
    Zn1 -      H1 [LENNARD_JONES] p_0/k_B:   1.79248 [K], p_1: 2.77500 [A], shift/k_B:  -0.00109633 [K], tailcorrection: no
    Zn1 - CH4_sp3 [LENNARD_JONES] p_0/k_B:   8.15904 [K], p_1: 3.21000 [A], shift/k_B:  -0.01195316 [K], tailcorrection: no
    Zn1 - CH3_sp3 [LENNARD_JONES] p_0/k_B:   6.73498 [K], p_1: 3.23000 [A], shift/k_B:  -0.01024139 [K], tailcorrection: no
    Zn1 - CH2_sp3 [LENNARD_JONES] p_0/k_B:   4.84974 [K], p_1: 3.33000 [A], shift/k_B:  -0.00885438 [K], tailcorrection: no
    Zn1 -  CH_sp3 [LENNARD_JONES] p_0/k_B:   2.67208 [K], p_1: 3.68500 [A], shift/k_B:  -0.00895534 [K], tailcorrection: no
    Zn1 -   C_sp3 [LENNARD_JONES] p_0/k_B:   0.57966 [K], p_1: 4.54000 [A], shift/k_B:  -0.00677956 [K], tailcorrection: no
    Zn1 -   H_com [LENNARD_JONES] p_0/k_B:   3.92607 [K], p_1: 2.82900 [A], shift/k_B:  -0.00269559 [K], tailcorrection: no
    Zn1 -   C_co2 [LENNARD_JONES] p_0/k_B:   3.36749 [K], p_1: 2.75000 [A], shift/k_B:  -0.00195080 [K], tailcorrection: no
    Zn1 -   O_co2 [LENNARD_JONES] p_0/k_B:   5.76021 [K], p_1: 2.87500 [A], shift/k_B:  -0.00435668 [K], tailcorrection: no
    Zn1 -    N_n2 [LENNARD_JONES] p_0/k_B:   3.88844 [K], p_1: 3.00500 [A], shift/k_B:  -0.00383449 [K], tailcorrection: no
    Zn1 -      Ar [LENNARD_JONES] p_0/k_B:   7.09338 [K], p_1: 3.02000 [A], shift/k_B:  -0.00720704 [K], tailcorrection: no
    Zn1 -      Ow [LENNARD_JONES] p_0/k_B:   6.13562 [K], p_1: 2.89850 [A], shift/k_B:  -0.00487287 [K], tailcorrection: no
    Zn1 -  C_benz [LENNARD_JONES] p_0/k_B:   3.59082 [K], p_1: 3.15000 [A], shift/k_B:  -0.00469772 [K], tailcorrection: no
    Zn1 -  H_benz [LENNARD_JONES] p_0/k_B:   3.26940 [K], p_1: 2.53000 [A], shift/k_B:  -0.00114849 [K], tailcorrection: no
    Zn1 -   N_dmf [LENNARD_JONES] p_0/k_B:   5.79655 [K], p_1: 2.95000 [A], shift/k_B:  -0.00511656 [K], tailcorrection: no
    Zn1 -  Co_dmf [LENNARD_JONES] p_0/k_B:   4.58258 [K], p_1: 3.20000 [A], shift/k_B:  -0.00658910 [K], tailcorrection: no
    Zn1 -  Cm_dmf [LENNARD_JONES] p_0/k_B:   5.79655 [K], p_1: 3.25000 [A], shift/k_B:  -0.00914684 [K], tailcorrection: no
    Zn1 -   O_dmf [LENNARD_JONES] p_0/k_B:   6.48074 [K], p_1: 2.83000 [A], shift/k_B:  -0.00445904 [K], tailcorrection: no
    Zn1 -   H_dmf [LENNARD_JONES] p_0/k_B:   1.83303 [K], p_1: 2.45000 [A], shift/k_B:  -0.00053102 [K], tailcorrection: no
    Zn1 -      Kr [LENNARD_JONES] p_0/k_B:   8.35990 [K], p_1: 3.16800 [A], shift/k_B:  -0.01131717 [K], tailcorrection: no
    Zn1 -      Xe [LENNARD_JONES] p_0/k_B:   9.63431 [K], p_1: 3.40000 [A], shift/k_B:  -0.01992701 [K], tailcorrection: no
     O1 -      O1 [LENNARD_JONES] p_0/k_B: 700.00000 [K], p_1: 2.98000 [A], shift/k_B:  -0.65654768 [K], tailcorrection: no
     O1 -      O2 [LENNARD_JONES] p_0/k_B: 222.14860 [K], p_1: 3.04500 [A], shift/k_B:  -0.23715043 [K], tailcorrection: no
     O1 -      C1 [LENNARD_JONES] p_0/k_B: 181.38357 [K], p_1: 3.36000 [A], shift/k_B:  -0.34945946 [K], tailcorrection: no
     O1 -      C2 [LENNARD_JONES] p_0/k_B: 183.03552 [K], p_1: 3.22500 [A], shift/k_B:  -0.27575445 [K], tailcorrection: no
     O1 -      C3 [LENNARD_JONES] p_0/k_B: 183.03552 [K], p_1: 3.22500 [A], shift/k_B:  -0.27575445 [K], tailcorrection: no
     O1 -      H1 [LENNARD_JONES] p_0/k_B:  73.17787 [K], p_1: 2.91500 [A], shift/k_B:  -0.06013044 [K], tailcorrection: no
     O1 - CH4_sp3 [LENNARD_JONES] p_0/k_B: 333.09158 [K], p_1: 3.35000 [A], shift/k_B:  -0.63037559 [K], tailcorrection: no
     O1 - CH3_sp3 [LENNARD_JONES] p_0/k_B: 274.95454 [K], p_1: 3.37000 [A], shift/k_B:  -0.53926188 [K], tailcorrection: no
     O1 - CH2_sp3 [LENNARD_JONES] p_0/k_B: 197.98990 [K], p_1: 3.47000 [A], shift/k_B:  -0.46274146 [K], tailcorrection: no
     O1 -  CH_sp3 [LENNARD_JONES] p_0/k_B: 109.08712 [K], p_1: 3.82500 [A], shift/k_B:  -0.45717123 [K], tailcorrection: no
     O1 -   C_sp3 [LENNARD_JONES] p_0/k_B:  23.66432 [K], p_1: 4.68000 [A], shift/k_B:  -0.33190270 [K], tailcorrection: no
     O1 -   H_com [LENNARD_JONES] p_0/k_B: 160.28100 [K], p_1: 2.96900 [A], shift/k_B:  -0.14703344 [K], tailcorrection: no
     O1 -   C_co2 [LENNARD_JONES] p_0/k_B: 137.47727 [K], p_1: 2.89000 [A], shift/k_B:  -0.10727678 [K], tailcorrection: no
     O1 -   O_co2 [LENNARD_JONES] p_0/k_B: 235.15952 [K], p_1: 3.01500 [A], shift/k_B:  -0.23656458 [K], tailcorrection: no
     O1 -    N_n2 [LENNARD_JONES] p_0/k_B: 158.74508 [K], p_1: 3.14500 [A], shift/k_B:  -0.20571024 [K], tailcorrection: no
     O1 -      Ar [LENNARD_JONES] p_0/k_B: 289.58591 [K], p_1: 3.16000 [A], shift/k_B:  -0.38612471 [K], tailcorrection: no
     O1 -      Ow [LENNARD_JONES] p_0/k_B: 250.48573 [K], p_1: 3.03850 [A], shift/k_B:  -0.26399547 [K], tailcorrection: no
     O1 -  C_benz [LENNARD_JONES] p_0/k_B: 146.59468 [K], p_1: 3.29000 [A], shift/k_B:  -0.24893251 [K], tailcorrection: no
     O1 -  H_benz [LENNARD_JONES] p_0/k_B: 133.47284 [K], p_1: 2.67000 [A], shift/k_B:  -0.06477095 [K], tailcorrection: no
     O1 -   N_dmf [LENNARD_JONES] p_0/k_B: 236.64319 [K], p_1: 3.09000 [A], shift/k_B:  -0.27586130 [K], tailcorrection: no
     O1 -  Co_dmf [LENNARD_JONES] p_0/k_B: 187.08287 [K], p_1: 3.34000 [A], shift/k_B:  -0.34776300 [K], tailcorrection: no
     O1 -  Cm_dmf [LENNARD_JONES] p_0/k_B: 236.64319 [K], p_1: 3.39000 [A], shift/k_B:  -0.48088797 [K], tailcorrection: no
     O1 -   O_dmf [LENNARD_JONES] p_0/k_B: 264.57513 [K], p_1: 2.97000 [A], shift/k_B:  -0.24319822 [K], tailcorrection: no
     O1 -   H_dmf [LENNARD_JONES] p_0/k_B:  74.83315 [K], p_1: 2.59000 [A], shift/k_B:  -0.03025668 [K], tailcorrection: no
     O1 -      Kr [LENNARD_JONES] p_0/k_B: 341.29166 [K], p_1: 3.30800 [A], shift/k_B:  -0.59882590 [K], tailcorrection: no
     O1 -      Xe [LENNARD_JONES] p_0/k_B: 393.31921 [K], p_1: 3.54000 [A], shift/k_B:  -1.03621749 [K], tailcorrection: no
     O2 -      O2 [LENNARD_JONES] p_0/k_B:  70.50000 [K], p_1: 3.11000 [A], shift/k_B:  -0.08542645 [K], tailcorrection: no
     O2 -      C1 [LENNARD_JONES] p_0/k_B:  57.56301 [K], p_1: 3.42500 [A], shift/k_B:  -0.12440694 [K], tailcorrection: no
     O2 -      C2 [LENNARD_JONES] p_0/k_B:  58.08726 [K], p_1: 3.29000 [A], shift/k_B:  -0.09863801 [K], tailcorrection: no
     O2 -      C3 [LENNARD_JONES] p_0/k_B:  58.08726 [K], p_1: 3.29000 [A], shift/k_B:  -0.09863801 [K], tailcorrection: no
     O2 -      H1 [LENNARD_JONES] p_0/k_B:  23.22337 [K], p_1: 2.98000 [A], shift/k_B:  -0.02178179 [K], tailcorrection: no
     O2 - CH4_sp3 [LENNARD_JONES] p_0/k_B: 105.70833 [K], p_1: 3.41500 [A], shift/k_B:  -0.22448907 [K], tailcorrection: no
     O2 - CH3_sp3 [LENNARD_JONES] p_0/k_B:  87.25824 [K], p_1: 3.43500 [A], shift/k_B:  -0.19191124 [K], tailcorrection: no
     O2 - CH2_sp3 [LENNARD_JONES] p_0/k_B:  62.83311 [K], p_1: 3.53500 [A], shift/k_B:  -0.16413972 [K], tailcorrection: no
     O2 -  CH_sp3 [LENNARD_JONES] p_0/k_B:  34.61936 [K], p_1: 3.89000 [A], shift/k_B:  -0.16050364 [K], tailcorrection: no
     O2 -   C_sp3 [LENNARD_JONES] p_0/k_B:   7.50999 [K], p_1: 4.74500 [A], shift/k_B:  -0.11438423 [K], tailcorrection: no
     O2 -   H_com [LENNARD_JONES] p_0/k_B:  50.86600 [K], p_1: 3.03400 [A], shift/k_B:  -0.05313493 [K], tailcorrection: no
     O2 -   C_co2 [LENNARD_JONES] p_0/k_B:  43.62912 [K], p_1: 2.95500 [A], shift/k_B:  -0.03890425 [K], tailcorrection: no
     O2 -   O_co2 [LENNARD_JONES] p_0/k_B:  74.62908 [K], p_1: 3.08000 [A], shift/k_B:  -0.08532194 [K], tailcorrection: no
     O2 -    N_n2 [LENNARD_JONES] p_0/k_B:  50.37857 [K], p_1: 3.21000 [A], shift/k_B:  -0.07380561 [K], tailcorrection: no
     O2 -      Ar [LENNARD_JONES] p_0/k_B:  91.90158 [K], p_1: 3.22500 [A], shift/k_B:  -0.13845547 [K], tailcorrection: no
     O2 -      Ow [LENNARD_JONES] p_0/k_B:  79.49293 [K], p_1: 3.10350 [A], shift/k_B:  -0.09512213 [K], tailcorrection: no
     O2 -  C_benz [LENNARD_JONES] p_0/k_B:  46.52258 [K], p_1: 3.35500 [A], shift/k_B:  -0.08883497 [K], tailcorrection: no
     O2 -  H_benz [LENNARD_JONES] p_0/k_B:  42.35829 [K], p_1: 2.73500 [A], shift/k_B:  -0.02374620 [K], tailcorrection: no
     O2 -   N_dmf [LENNARD_JONES] p_0/k_B:  75.09993 [K], p_1: 3.15500 [A], shift/k_B:  -0.09918929 [K], tailcorrection: no
     O2 -  Co_dmf [LENNARD_JONES] p_0/k_B:  59.37171 [K], p_1: 3.40500 [A], shift/k_B:  -0.12388766 [K], tailcorrection: no
     O2 -  Cm_dmf [LENNARD_JONES] p_0/k_B:  75.09993 [K], p_1: 3.45500 [A], shift/k_B:  -0.17102237 [K], tailcorrection: no
     O2 -   O_dmf [LENNARD_JONES] p_0/k_B:  83.96428 [K], p_1: 3.03500 [A], shift/k_B:  -0.08788314 [K], tailcorrection: no
     O2 -   H_dmf [LENNARD_JONES] p_0/k_B:  23.74868 [K], p_1: 2.65500 [A], shift/k_B:  -0.01114162 [K], tailcorrection: no
     O2 -      Kr [LENNARD_JONES] p_0/k_B: 108.31066 [K], p_1: 3.37300 [A], shift/k_B:  -0.21356375 [K], tailcorrection: no
     O2 -      Xe [LENNARD_JONES] p_0/k_B: 124.82187 [K], p_1: 3.60500 [A], shift/k_B:  -0.36675451 [K], tailcorrection: no
     C1 -      C1 [LENNARD_JONES] p_0/k_B:  47.00000 [K], p_1: 3.74000 [A], shift/k_B:  -0.17214791 [K], tailcorrection: no
     C1 -      C2 [LENNARD_JONES] p_0/k_B:  47.42805 [K], p_1: 3.60500 [A], shift/k_B:  -0.13935419 [K], tailcorrection: no
     C1 -      C3 [LENNARD_JONES] p_0/k_B:  47.42805 [K], p_1: 3.60500 [A], shift/k_B:  -0.13935419 [K], tailcorrection: no
     C1 -      H1 [LENNARD_JONES] p_0/k_B:  18.96180 [K], p_1: 3.29500 [A], shift/k_B:  -0.03249365 [K], tailcorrection: no
     C1 - CH4_sp3 [LENNARD_JONES] p_0/k_B:  86.31049 [K], p_1: 3.73000 [A], shift/k_B:  -0.31109798 [K], tailcorrection: no
     C1 - CH3_sp3 [LENNARD_JONES] p_0/k_B:  71.24605 [K], p_1: 3.75000 [A], shift/k_B:  -0.26516504 [K], tailcorrection: no
     C1 - CH2_sp3 [LENNARD_JONES] p_0/k_B:  51.30302 [K], p_1: 3.85000 [A], shift/k_B:  -0.22356609 [K], tailcorrection: no
     C1 -  CH_sp3 [LENNARD_JONES] p_0/k_B:  28.26659 [K], p_1: 4.20500 [A], shift/k_B:  -0.20894746 [K], tailcorrection: no
     C1 -   C_sp3 [LENNARD_JONES] p_0/k_B:   6.13188 [K], p_1: 5.06000 [A], shift/k_B:  -0.13709495 [K], tailcorrection: no
     C1 -   H_com [LENNARD_JONES] p_0/k_B:  41.53192 [K], p_1: 3.34900 [A], shift/k_B:  -0.07845852 [K], tailcorrection: no
     C1 -   C_co2 [LENNARD_JONES] p_0/k_B:  35.62303 [K], p_1: 3.27000 [A], shift/k_B:  -0.05831926 [K], tailcorrection: no
     C1 -   O_co2 [LENNARD_JONES] p_0/k_B:  60.93439 [K], p_1: 3.39500 [A], shift/k_B:  -0.12492544 [K], tailcorrection: no
     C1 -    N_n2 [LENNARD_JONES] p_0/k_B:  41.13393 [K], p_1: 3.52500 [A], shift/k_B:  -0.10564484 [K], tailcorrection: no
     C1 -      Ar [LENNARD_JONES] p_0/k_B:  75.03732 [K], p_1: 3.54000 [A], shift/k_B:  -0.19768927 [K], tailcorrection: no
     C1 -      Ow [LENNARD_JONES] p_0/k_B:  64.90571 [K], p_1: 3.41850 [A], shift/k_B:  -0.13868731 [K], tailcorrection: no
     C1 -  C_benz [LENNARD_JONES] p_0/k_B:  37.98552 [K], p_1: 3.67000 [A], shift/k_B:  -0.12423143 [K], tailcorrection: no
     C1 -  H_benz [LENNARD_JONES] p_0/k_B:  34.58540 [K], p_1: 3.05000 [A], shift/k_B:  -0.03728613 [K], tailcorrection: no
     C1 -   N_dmf [LENNARD_JONES] p_0/k_B:  61.31884 [K], p_1: 3.47000 [A], shift/k_B:  -0.14331423 [K], tailcorrection: no
     C1 -  Co_dmf [LENNARD_JONES] p_0/k_B:  48.47680 [K], p_1: 3.72000 [A], shift/k_B:  -0.17194062 [K], tailcorrection: no
     C1 -  Cm_dmf [LENNARD_JONES] p_0/k_B:  61.31884 [K], p_1: 3.77000 [A], shift/k_B:  -0.23561165 [K], tailcorrection: no
     C1 -   O_dmf [LENNARD_JONES] p_0/k_B:  68.55655 [K], p_1: 3.35000 [A], shift/k_B:  -0.12974322 [K], tailcorrection: no
     C1 -   H_dmf [LENNARD_JONES] p_0/k_B:  19.39072 [K], p_1: 2.97000 [A], shift/k_B:  -0.01782401 [K], tailcorrection: no
     C1 -      Kr [LENNARD_JONES] p_0/k_B:  88.43529 [K], p_1: 3.68800 [A], shift/k_B:  -0.29783618 [K], tailcorrection: no
     C1 -      Xe [LENNARD_JONES] p_0/k_B: 101.91663 [K], p_1: 3.92000 [A], shift/k_B:  -0.49477293 [K], tailcorrection: no
     C2 -      C2 [LENNARD_JONES] p_0/k_B:  47.86000 [K], p_1: 3.47000 [A], shift/k_B:  -0.11185826 [K], tailcorrection: no
     C2 -      C3 [LENNARD_JONES] p_0/k_B:  47.86000 [K], p_1: 3.47000 [A], shift/k_B:  -0.11185826 [K], tailcorrection: no
     C2 -      H1 [LENNARD_JONES] p_0/k_B:  19.13450 [K], p_1: 3.16000 [A], shift/k_B:  -0.02551334 [K], tailcorrection: no
     C2 - CH4_sp3 [LENNARD_JONES] p_0/k_B:  87.09656 [K], p_1: 3.59500 [A], shift/k_B:  -0.25168236 [K], tailcorrection: no
     C2 - CH3_sp3 [LENNARD_JONES] p_0/k_B:  71.89492 [K], p_1: 3.61500 [A], shift/k_B:  -0.21478098 [K], tailcorrection: no
     C2 - CH2_sp3 [LENNARD_JONES] p_0/k_B:  51.77026 [K], p_1: 3.71500 [A], shift/k_B:  -0.18214753 [K], tailcorrection: no
     C2 -  CH_sp3 [LENNARD_JONES] p_0/k_B:  28.52402 [K], p_1: 4.07000 [A], shift/k_B:  -0.17341561 [K], tailcorrection: no
     C2 -   C_sp3 [LENNARD_JONES] p_0/k_B:   6.18773 [K], p_1: 4.92500 [A], shift/k_B:  -0.11772284 [K], tailcorrection: no
     C2 -   H_com [LENNARD_JONES] p_0/k_B:  41.91017 [K], p_1: 3.21400 [A], shift/k_B:  -0.06185955 [K], tailcorrection: no
     C2 -   C_co2 [LENNARD_JONES] p_0/k_B:  35.94746 [K], p_1: 3.13500 [A], shift/k_B:  -0.04570123 [K], tailcorrection: no
     C2 -   O_co2 [LENNARD_JONES] p_0/k_B:  61.48935 [K], p_1: 3.26000 [A], shift/k_B:  -0.09883332 [K], tailcorrection: no
     C2 -    N_n2 [LENNARD_JONES] p_0/k_B:  41.50855 [K], p_1: 3.39000 [A], shift/k_B:  -0.08435047 [K], tailcorrection: no
     C2 -      Ar [LENNARD_JONES] p_0/k_B:  75.72072 [K], p_1: 3.40500 [A], shift/k_B:  -0.15800224 [K], tailcorrection: no
     C2 -      Ow [LENNARD_JONES] p_0/k_B:  65.49683 [K], p_1: 3.28350 [A], shift/k_B:  -0.10990884 [K], tailcorrection: no
     C2 -  C_benz [LENNARD_JONES] p_0/k_B:  38.33148 [K], p_1: 3.53500 [A], shift/k_B:  -0.10013379 [K], tailcorrection: no
     C2 -  H_benz [LENNARD_JONES] p_0/k_B:  34.90039 [K], p_1: 2.91500 [A], shift/k_B:  -0.02867774 [K], tailcorrection: no
     C2 -   N_dmf [LENNARD_JONES] p_0/k_B:  61.87730 [K], p_1: 3.33500 [A], shift/k_B:  -0.11399314 [K], tailcorrection: no
     C2 -  Co_dmf [LENNARD_JONES] p_0/k_B:  48.91830 [K], p_1: 3.58500 [A], shift/k_B:  -0.13901765 [K], tailcorrection: no
     C2 -  Cm_dmf [LENNARD_JONES] p_0/k_B:  61.87730 [K], p_1: 3.63500 [A], shift/k_B:  -0.19107096 [K], tailcorrection: no
     C2 -   O_dmf [LENNARD_JONES] p_0/k_B:  69.18092 [K], p_1: 3.21500 [A], shift/k_B:  -0.10230199 [K], tailcorrection: no
     C2 -   H_dmf [LENNARD_JONES] p_0/k_B:  19.56732 [K], p_1: 2.83500 [A], shift/k_B:  -0.01360651 [K], tailcorrection: no
     C2 -      Kr [LENNARD_JONES] p_0/k_B:  89.24071 [K], p_1: 3.55300 [A], shift/k_B:  -0.24033337 [K], tailcorrection: no
     C2 -      Xe [LENNARD_JONES] p_0/k_B: 102.84483 [K], p_1: 3.78500 [A], shift/k_B:  -0.40468997 [K], tailcorrection: no
     C3 -      C3 [LENNARD_JONES] p_0/k_B:  47.86000 [K], p_1: 3.47000 [A], shift/k_B:  -0.11185826 [K], tailcorrection: no
     C3 -      H1 [LENNARD_JONES] p_0/k_B:  19.13450 [K], p_1: 3.16000 [A], shift/k_B:  -0.02551334 [K], tailcorrection: no
     C3 - CH4_sp3 [LENNARD_JONES] p_0/k_B:  87.09656 [K], p_1: 3.59500 [A], shift/k_B:  -0.25168236 [K], tailcorrection: no
     C3 - CH3_sp3 [LENNARD_JONES] p_0/k_B:  71.89492 [K], p_1: 3.61500 [A], shift/k_B:  -0.21478098 [K], tailcorrection: no
     C3 - CH2_sp3 [LENNARD_JONES] p_0/k_B:  51.77026 [K], p_1: 3.71500 [A], shift/k_B:  -0.18214753 [K], tailcorrection: no
     C3 -  CH_sp3 [LENNARD_JONES] p_0/k_B:  28.52402 [K], p_1: 4.07000 [A], shift/k_B:  -0.17341561 [K], tailcorrection: no
     C3 -   C_sp3 [LENNARD_JONES] p_0/k_B:   6.18773 [K], p_1: 4.92500 [A], shift/k_B:  -0.11772284 [K], tailcorrection: no
     C3 -   H_com [LENNARD_JONES] p_0/k_B:  41.91017 [K], p_1: 3.21400 [A], shift/k_B:  -0.06185955 [K], tailcorrection: no
     C3 -   C_co2 [LENNARD_JONES] p_0/k_B:  35.94746 [K], p_1: 3.13500 [A], shift/k_B:  -0.04570123 [K], tailcorrection: no
     C3 -   O_co2 [LENNARD_JONES] p_0/k_B:  61.48935 [K], p_1: 3.26000 [A], shift/k_B:  -0.09883332 [K], tailcorrection: no
     C3 -    N_n2 [LENNARD_JONES] p_0/k_B:  41.50855 [K], p_1: 3.39000 [A], shift/k_B:  -0.08435047 [K], tailcorrection: no
     C3 -      Ar [LENNARD_JONES] p_0/k_B:  75.72072 [K], p_1: 3.40500 [A], shift/k_B:  -0.15800224 [K], tailcorrection: no
     C3 -      Ow [LENNARD_JONES] p_0/k_B:  65.49683 [K], p_1: 3.28350 [A], shift/k_B:  -0.10990884 [K], tailcorrection: no
     C3 -  C_benz [LENNARD_JONES] p_0/k_B:  38.33148 [K], p_1: 3.53500 [A], shift/k_B:  -0.10013379 [K], tailcorrection: no
     C3 -  H_benz [LENNARD_JONES] p_0/k_B:  34.90039 [K], p_1: 2.91500 [A], shift/k_B:  -0.02867774 [K], tailcorrection: no
     C3 -   N_dmf [LENNARD_JONES] p_0/k_B:  61.87730 [K], p_1: 3.33500 [A], shift/k_B:  -0.11399314 [K], tailcorrection: no
     C3 -  Co_dmf [LENNARD_JONES] p_0/k_B:  48.91830 [K], p_1: 3.58500 [A], shift/k_B:  -0.13901765 [K], tailcorrection: no
     C3 -  Cm_dmf [LENNARD_JONES] p_0/k_B:  61.87730 [K], p_1: 3.63500 [A], shift/k_B:  -0.19107096 [K], tailcorrection: no
     C3 -   O_dmf [LENNARD_JONES] p_0/k_B:  69.18092 [K], p_1: 3.21500 [A], shift/k_B:  -0.10230199 [K], tailcorrection: no
     C3 -   H_dmf [LENNARD_JONES] p_0/k_B:  19.56732 [K], p_1: 2.83500 [A], shift/k_B:  -0.01360651 [K], tailcorrection: no
     C3 -      Kr [LENNARD_JONES] p_0/k_B:  89.24071 [K], p_1: 3.55300 [A], shift/k_B:  -0.24033337 [K], tailcorrection: no
     C3 -      Xe [LENNARD_JONES] p_0/k_B: 102.84483 [K], p_1: 3.78500 [A], shift/k_B:  -0.40468997 [K], tailcorrection: no
     H1 -      H1 [LENNARD_JONES] p_0/k_B:   7.65000 [K], p_1: 2.85000 [A], shift/k_B:  -0.00549067 [K], tailcorrection: no
     H1 - CH4_sp3 [LENNARD_JONES] p_0/k_B:  34.82133 [K], p_1: 3.28500 [A], shift/k_B:  -0.05859321 [K], tailcorrection: no
     H1 - CH3_sp3 [LENNARD_JONES] p_0/k_B:  28.74369 [K], p_1: 3.30500 [A], shift/k_B:  -0.05015963 [K], tailcorrection: no
     H1 - CH2_sp3 [LENNARD_JONES] p_0/k_B:  20.69783 [K], p_1: 3.40500 [A], shift/k_B:  -0.04318901 [K], tailcorrection: no
     H1 -  CH_sp3 [LENNARD_JONES] p_0/k_B:  11.40395 [K], p_1: 3.76000 [A], shift/k_B:  -0.04312644 [K], tailcorrection: no
     H1 -   C_sp3 [LENNARD_JONES] p_0/k_B:   2.47386 [K], p_1: 4.61500 [A], shift/k_B:  -0.03191325 [K], tailcorrection: no
     H1 -   H_com [LENNARD_JONES] p_0/k_B:  16.75575 [K], p_1: 2.90400 [A], shift/k_B:  -0.01345949 [K], tailcorrection: no
     H1 -   C_co2 [LENNARD_JONES] p_0/k_B:  14.37185 [K], p_1: 2.82500 [A], shift/k_B:  -0.00978412 [K], tailcorrection: no
     H1 -   O_co2 [LENNARD_JONES] p_0/k_B:  24.58353 [K], p_1: 2.95000 [A], shift/k_B:  -0.02169966 [K], tailcorrection: no
     H1 -    N_n2 [LENNARD_JONES] p_0/k_B:  16.59518 [K], p_1: 3.08000 [A], shift/k_B:  -0.01897294 [K], tailcorrection: no
     H1 -      Ar [LENNARD_JONES] p_0/k_B:  30.27326 [K], p_1: 3.09500 [A], shift/k_B:  -0.03563426 [K], tailcorrection: no
     H1 -      Ow [LENNARD_JONES] p_0/k_B:  26.18573 [K], p_1: 2.97350 [A], shift/k_B:  -0.02424065 [K], tailcorrection: no
     H1 -  C_benz [LENNARD_JONES] p_0/k_B:  15.32498 [K], p_1: 3.22500 [A], shift/k_B:  -0.02308804 [K], tailcorrection: no
     H1 -  H_benz [LENNARD_JONES] p_0/k_B:  13.95323 [K], p_1: 2.60500 [A], shift/k_B:  -0.00584047 [K], tailcorrection: no
     H1 -   N_dmf [LENNARD_JONES] p_0/k_B:  24.73863 [K], p_1: 3.02500 [A], shift/k_B:  -0.02538569 [K], tailcorrection: no
     H1 -  Co_dmf [LENNARD_JONES] p_0/k_B:  19.55761 [K], p_1: 3.27500 [A], shift/k_B:  -0.03231295 [K], tailcorrection: no
     H1 -  Cm_dmf [LENNARD_JONES] p_0/k_B:  24.73863 [K], p_1: 3.32500 [A], shift/k_B:  -0.04476118 [K], tailcorrection: no
     H1 -   O_dmf [LENNARD_JONES] p_0/k_B:  27.65863 [K], p_1: 2.90500 [A], shift/k_B:  -0.02226346 [K], tailcorrection: no
     H1 -   H_dmf [LENNARD_JONES] p_0/k_B:   7.82304 [K], p_1: 2.52500 [A], shift/k_B:  -0.00271568 [K], tailcorrection: no
     H1 -      Kr [LENNARD_JONES] p_0/k_B:  35.67856 [K], p_1: 3.24300 [A], shift/k_B:  -0.05557665 [K], tailcorrection: no
     H1 -      Xe [LENNARD_JONES] p_0/k_B:  41.11751 [K], p_1: 3.47500 [A], shift/k_B:  -0.09693309 [K], tailcorrection: no
CH4_sp3 - CH4_sp3 [LENNARD_JONES] p_0/k_B: 158.50000 [K], p_1: 3.72000 [A], shift/k_B:  -0.56217796 [K], tailcorrection: no
CH4_sp3 - CH3_sp3 [LENNARD_JONES] p_0/k_B: 130.83577 [K], p_1: 3.74000 [A], shift/k_B:  -0.47921501 [K], tailcorrection: no
CH4_sp3 - CH2_sp3 [LENNARD_JONES] p_0/k_B:  94.21253 [K], p_1: 3.84000 [A], shift/k_B:  -0.40420524 [K], tailcorrection: no
CH4_sp3 -  CH_sp3 [LENNARD_JONES] p_0/k_B:  51.90857 [K], p_1: 4.19500 [A], shift/k_B:  -0.37827707 [K], tailcorrection: no
CH4_sp3 -   C_sp3 [LENNARD_JONES] p_0/k_B:  11.26055 [K], p_1: 5.05000 [A], shift/k_B:  -0.24880626 [K], tailcorrection: no
CH4_sp3 -   H_com [LENNARD_JONES] p_0/k_B:  76.26893 [K], p_1: 3.33900 [A], shift/k_B:  -0.14151976 [K], tailcorrection: no
CH4_sp3 -   C_co2 [LENNARD_JONES] p_0/k_B:  65.41789 [K], p_1: 3.26000 [A], shift/k_B:  -0.10514776 [K], tailcorrection: no
CH4_sp3 -   O_co2 [LENNARD_JONES] p_0/k_B: 111.89951 [K], p_1: 3.38500 [A], shift/k_B:  -0.22538960 [K], tailcorrection: no
CH4_sp3 -    N_n2 [LENNARD_JONES] p_0/k_B:  75.53807 [K], p_1: 3.51500 [A], shift/k_B:  -0.19072867 [K], tailcorrection: no
CH4_sp3 -      Ar [LENNARD_JONES] p_0/k_B: 137.79804 [K], p_1: 3.53000 [A], shift/k_B:  -0.35692937 [K], tailcorrection: no
CH4_sp3 -      Ow [LENNARD_JONES] p_0/k_B: 119.19241 [K], p_1: 3.40850 [A], shift/k_B:  -0.25024924 [K], tailcorrection: no
CH4_sp3 -  C_benz [LENNARD_JONES] p_0/k_B:  69.75636 [K], p_1: 3.66000 [A], shift/k_B:  -0.22443630 [K], tailcorrection: no
CH4_sp3 -  H_benz [LENNARD_JONES] p_0/k_B:  63.51240 [K], p_1: 3.04000 [A], shift/k_B:  -0.06713635 [K], tailcorrection: no
CH4_sp3 -   N_dmf [LENNARD_JONES] p_0/k_B: 112.60551 [K], p_1: 3.46000 [A], shift/k_B:  -0.25866586 [K], tailcorrection: no
CH4_sp3 -  Co_dmf [LENNARD_JONES] p_0/k_B:  89.02247 [K], p_1: 3.71000 [A], shift/k_B:  -0.31069637 [K], tailcorrection: no
CH4_sp3 -  Cm_dmf [LENNARD_JONES] p_0/k_B: 112.60551 [K], p_1: 3.76000 [A], shift/k_B:  -0.42584155 [K], tailcorrection: no
CH4_sp3 -   O_dmf [LENNARD_JONES] p_0/k_B: 125.89678 [K], p_1: 3.34000 [A], shift/k_B:  -0.23402593 [K], tailcorrection: no
CH4_sp3 -   H_dmf [LENNARD_JONES] p_0/k_B:  35.60899 [K], p_1: 2.96000 [A], shift/k_B:  -0.03207632 [K], tailcorrection: no
CH4_sp3 -      Kr [LENNARD_JONES] p_0/k_B: 162.40197 [K], p_1: 3.67800 [A], shift/k_B:  -0.53811358 [K], tailcorrection: no
CH4_sp3 -      Xe [LENNARD_JONES] p_0/k_B: 187.15902 [K], p_1: 3.91000 [A], shift/k_B:  -0.89479554 [K], tailcorrection: no
CH3_sp3 - CH3_sp3 [LENNARD_JONES] p_0/k_B: 108.00000 [K], p_1: 3.76000 [A], shift/k_B:  -0.40842485 [K], tailcorrection: no
CH3_sp3 - CH2_sp3 [LENNARD_JONES] p_0/k_B:  77.76889 [K], p_1: 3.86000 [A], shift/k_B:  -0.34420794 [K], tailcorrection: no
CH3_sp3 -  CH_sp3 [LENNARD_JONES] p_0/k_B:  42.84857 [K], p_1: 4.21500 [A], shift/k_B:  -0.32127575 [K], tailcorrection: no
CH3_sp3 -   C_sp3 [LENNARD_JONES] p_0/k_B:   9.29516 [K], p_1: 5.07000 [A], shift/k_B:  -0.21028090 [K], tailcorrection: no
CH3_sp3 -   H_com [LENNARD_JONES] p_0/k_B:  62.95713 [K], p_1: 3.35900 [A], shift/k_B:  -0.12107891 [K], tailcorrection: no
CH3_sp3 -   C_co2 [LENNARD_JONES] p_0/k_B:  54.00000 [K], p_1: 3.28000 [A], shift/k_B:  -0.09003849 [K], tailcorrection: no
CH3_sp3 -   O_co2 [LENNARD_JONES] p_0/k_B:  92.36883 [K], p_1: 3.40500 [A], shift/k_B:  -0.19274091 [K], tailcorrection: no
CH3_sp3 -    N_n2 [LENNARD_JONES] p_0/k_B:  62.35383 [K], p_1: 3.53500 [A], shift/k_B:  -0.16288768 [K], tailcorrection: no
CH3_sp3 -      Ar [LENNARD_JONES] p_0/k_B: 113.74709 [K], p_1: 3.55000 [A], shift/k_B:  -0.30478368 [K], tailcorrection: no
CH3_sp3 -      Ow [LENNARD_JONES] p_0/k_B:  98.38884 [K], p_1: 3.42850 [A], shift/k_B:  -0.21394739 [K], tailcorrection: no
CH3_sp3 -  C_benz [LENNARD_JONES] p_0/k_B:  57.58125 [K], p_1: 3.68000 [A], shift/k_B:  -0.19141639 [K], tailcorrection: no
CH3_sp3 -  H_benz [LENNARD_JONES] p_0/k_B:  52.42709 [K], p_1: 3.06000 [A], shift/k_B:  -0.05764179 [K], tailcorrection: no
CH3_sp3 -   N_dmf [LENNARD_JONES] p_0/k_B:  92.95160 [K], p_1: 3.48000 [A], shift/k_B:  -0.22102757 [K], tailcorrection: no
CH3_sp3 -  Co_dmf [LENNARD_JONES] p_0/k_B:  73.48469 [K], p_1: 3.73000 [A], shift/k_B:  -0.26486862 [K], tailcorrection: no
CH3_sp3 -  Cm_dmf [LENNARD_JONES] p_0/k_B:  92.95160 [K], p_1: 3.78000 [A], shift/k_B:  -0.36287388 [K], tailcorrection: no
CH3_sp3 -   O_dmf [LENNARD_JONES] p_0/k_B: 103.92305 [K], p_1: 3.36000 [A], shift/k_B:  -0.20022151 [K], tailcorrection: no
CH3_sp3 -   H_dmf [LENNARD_JONES] p_0/k_B:  29.39388 [K], p_1: 2.98000 [A], shift/k_B:  -0.02756926 [K], tailcorrection: no
CH3_sp3 -      Kr [LENNARD_JONES] p_0/k_B: 134.05670 [K], p_1: 3.69800 [A], shift/k_B:  -0.45887075 [K], tailcorrection: no
CH3_sp3 -      Xe [LENNARD_JONES] p_0/k_B: 154.49272 [K], p_1: 3.93000 [A], shift/k_B:  -0.76155214 [K], tailcorrection: no
CH2_sp3 - CH2_sp3 [LENNARD_JONES] p_0/k_B:  56.00000 [K], p_1: 3.96000 [A], shift/k_B:  -0.28891522 [K], tailcorrection: no
CH2_sp3 -  CH_sp3 [LENNARD_JONES] p_0/k_B:  30.85450 [K], p_1: 4.31500 [A], shift/k_B:  -0.26621710 [K], tailcorrection: no
CH2_sp3 -   C_sp3 [LENNARD_JONES] p_0/k_B:   6.69328 [K], p_1: 5.17000 [A], shift/k_B:  -0.17012512 [K], tailcorrection: no
CH2_sp3 -   H_com [LENNARD_JONES] p_0/k_B:  45.33431 [K], p_1: 3.45900 [A], shift/k_B:  -0.10395700 [K], tailcorrection: no
CH2_sp3 -   C_co2 [LENNARD_JONES] p_0/k_B:  38.88444 [K], p_1: 3.38000 [A], shift/k_B:  -0.07763038 [K], tailcorrection: no
CH2_sp3 -   O_co2 [LENNARD_JONES] p_0/k_B:  66.51316 [K], p_1: 3.50500 [A], shift/k_B:  -0.16509673 [K], tailcorrection: no
CH2_sp3 -    N_n2 [LENNARD_JONES] p_0/k_B:  44.89989 [K], p_1: 3.63500 [A], shift/k_B:  -0.13864641 [K], tailcorrection: no
CH2_sp3 -      Ar [LENNARD_JONES] p_0/k_B:  81.90726 [K], p_1: 3.65000 [A], shift/k_B:  -0.25924362 [K], tailcorrection: no
CH2_sp3 -      Ow [LENNARD_JONES] p_0/k_B:  70.84806 [K], p_1: 3.52850 [A], shift/k_B:  -0.18304608 [K], tailcorrection: no
CH2_sp3 -  C_benz [LENNARD_JONES] p_0/k_B:  41.46324 [K], p_1: 3.78000 [A], shift/k_B:  -0.16186838 [K], tailcorrection: no
CH2_sp3 -  H_benz [LENNARD_JONES] p_0/k_B:  37.75182 [K], p_1: 3.16000 [A], shift/k_B:  -0.05033709 [K], tailcorrection: no
CH2_sp3 -   N_dmf [LENNARD_JONES] p_0/k_B:  66.93280 [K], p_1: 3.58000 [A], shift/k_B:  -0.18862679 [K], tailcorrection: no
CH2_sp3 -  Co_dmf [LENNARD_JONES] p_0/k_B:  52.91503 [K], p_1: 3.83000 [A], shift/k_B:  -0.22350377 [K], tailcorrection: no
CH2_sp3 -  Cm_dmf [LENNARD_JONES] p_0/k_B:  66.93280 [K], p_1: 3.88000 [A], shift/k_B:  -0.30556623 [K], tailcorrection: no
CH2_sp3 -   O_dmf [LENNARD_JONES] p_0/k_B:  74.83315 [K], p_1: 3.46000 [A], shift/k_B:  -0.17189906 [K], tailcorrection: no
CH2_sp3 -   H_dmf [LENNARD_JONES] p_0/k_B:  21.16601 [K], p_1: 3.08000 [A], shift/k_B:  -0.02419868 [K], tailcorrection: no
CH2_sp3 -      Kr [LENNARD_JONES] p_0/k_B:  96.53186 [K], p_1: 3.79800 [A], shift/k_B:  -0.38773606 [K], tailcorrection: no
CH2_sp3 -      Xe [LENNARD_JONES] p_0/k_B: 111.24747 [K], p_1: 4.03000 [A], shift/k_B:  -0.63748422 [K], tailcorrection: no
 CH_sp3 -  CH_sp3 [LENNARD_JONES] p_0/k_B:  17.00000 [K], p_1: 4.67000 [A], shift/k_B:  -0.23540268 [K], tailcorrection: no
 CH_sp3 -   C_sp3 [LENNARD_JONES] p_0/k_B:   3.68782 [K], p_1: 5.52500 [A], shift/k_B:  -0.13918063 [K], tailcorrection: no
 CH_sp3 -   H_com [LENNARD_JONES] p_0/k_B:  24.97799 [K], p_1: 3.81400 [A], shift/k_B:  -0.10288835 [K], tailcorrection: no
 CH_sp3 -   C_co2 [LENNARD_JONES] p_0/k_B:  21.42429 [K], p_1: 3.73500 [A], shift/k_B:  -0.07784441 [K], tailcorrection: no
 CH_sp3 -   O_co2 [LENNARD_JONES] p_0/k_B:  36.64696 [K], p_1: 3.86000 [A], shift/k_B:  -0.16220080 [K], tailcorrection: no
 CH_sp3 -    N_n2 [LENNARD_JONES] p_0/k_B:  24.73863 [K], p_1: 3.99000 [A], shift/k_B:  -0.13353599 [K], tailcorrection: no
 CH_sp3 -      Ar [LENNARD_JONES] p_0/k_B:  45.12870 [K], p_1: 4.00500 [A], shift/k_B:  -0.24913794 [K], tailcorrection: no
 CH_sp3 -      Ow [LENNARD_JONES] p_0/k_B:  39.03538 [K], p_1: 3.88350 [A], shift/k_B:  -0.17917260 [K], tailcorrection: no
 CH_sp3 -  C_benz [LENNARD_JONES] p_0/k_B:  22.84513 [K], p_1: 4.13500 [A], shift/k_B:  -0.15271849 [K], tailcorrection: no
 CH_sp3 -  H_benz [LENNARD_JONES] p_0/k_B:  20.80024 [K], p_1: 3.51500 [A], shift/k_B:  -0.05251924 [K], tailcorrection: no
 CH_sp3 -   N_dmf [LENNARD_JONES] p_0/k_B:  36.87818 [K], p_1: 3.93500 [A], shift/k_B:  -0.18317664 [K], tailcorrection: no
 CH_sp3 -  Co_dmf [LENNARD_JONES] p_0/k_B:  29.15476 [K], p_1: 4.18500 [A], shift/k_B:  -0.20944628 [K], tailcorrection: no
 CH_sp3 -  Cm_dmf [LENNARD_JONES] p_0/k_B:  36.87818 [K], p_1: 4.23500 [A], shift/k_B:  -0.28446087 [K], tailcorrection: no
 CH_sp3 -   O_dmf [LENNARD_JONES] p_0/k_B:  41.23106 [K], p_1: 3.81500 [A], shift/k_B:  -0.17010442 [K], tailcorrection: no
 CH_sp3 -   H_dmf [LENNARD_JONES] p_0/k_B:  11.66190 [K], p_1: 3.43500 [A], shift/k_B:  -0.02564859 [K], tailcorrection: no
 CH_sp3 -      Kr [LENNARD_JONES] p_0/k_B:  53.18646 [K], p_1: 4.15300 [A], shift/k_B:  -0.36492058 [K], tailcorrection: no
 CH_sp3 -      Xe [LENNARD_JONES] p_0/k_B:  61.29437 [K], p_1: 4.38500 [A], shift/k_B:  -0.58233847 [K], tailcorrection: no
  C_sp3 -   C_sp3 [LENNARD_JONES] p_0/k_B:   0.80000 [K], p_1: 6.38000 [A], shift/k_B:  -0.07064236 [K], tailcorrection: no
  C_sp3 -   H_com [LENNARD_JONES] p_0/k_B:   5.41849 [K], p_1: 4.66900 [A], shift/k_B:  -0.07493495 [K], tailcorrection: no
  C_sp3 -   C_co2 [LENNARD_JONES] p_0/k_B:   4.64758 [K], p_1: 4.59000 [A], shift/k_B:  -0.05803811 [K], tailcorrection: no
  C_sp3 -   O_co2 [LENNARD_JONES] p_0/k_B:   7.94984 [K], p_1: 4.71500 [A], shift/k_B:  -0.11657898 [K], tailcorrection: no
  C_sp3 -    N_n2 [LENNARD_JONES] p_0/k_B:   5.36656 [K], p_1: 4.84500 [A], shift/k_B:  -0.09258616 [K], tailcorrection: no
  C_sp3 -      Ar [LENNARD_JONES] p_0/k_B:   9.78979 [K], p_1: 4.86000 [A], shift/k_B:  -0.17204528 [K], tailcorrection: no
  C_sp3 -      Ow [LENNARD_JONES] p_0/k_B:   8.46796 [K], p_1: 4.73850 [A], shift/k_B:  -0.12792259 [K], tailcorrection: no
  C_sp3 -  C_benz [LENNARD_JONES] p_0/k_B:   4.95580 [K], p_1: 4.99000 [A], shift/k_B:  -0.10196209 [K], tailcorrection: no
  C_sp3 -  H_benz [LENNARD_JONES] p_0/k_B:   4.51221 [K], p_1: 4.37000 [A], shift/k_B:  -0.04199870 [K], tailcorrection: no
  C_sp3 -   N_dmf [LENNARD_JONES] p_0/k_B:   8.00000 [K], p_1: 4.79000 [A], shift/k_B:  -0.12891851 [K], tailcorrection: no
  C_sp3 -  Co_dmf [LENNARD_JONES] p_0/k_B:   6.32456 [K], p_1: 5.04000 [A], shift/k_B:  -0.13810052 [K], tailcorrection: no
  C_sp3 -  Cm_dmf [LENNARD_JONES] p_0/k_B:   8.00000 [K], p_1: 5.09000 [A], shift/k_B:  -0.18528168 [K], tailcorrection: no
  C_sp3 -   O_dmf [LENNARD_JONES] p_0/k_B:   8.94427 [K], p_1: 4.67000 [A], shift/k_B:  -0.12385327 [K], tailcorrection: no
  C_sp3 -   H_dmf [LENNARD_JONES] p_0/k_B:   2.52982 [K], p_1: 4.29000 [A], shift/k_B:  -0.02108136 [K], tailcorrection: no
  C_sp3 -      Kr [LENNARD_JONES] p_0/k_B:  11.53776 [K], p_1: 5.00800 [A], shift/k_B:  -0.24253786 [K], tailcorrection: no
  C_sp3 -      Xe [LENNARD_JONES] p_0/k_B:  13.29662 [K], p_1: 5.24000 [A], shift/k_B:  -0.36616773 [K], tailcorrection: no
  H_com -   H_com [LENNARD_JONES] p_0/k_B:  36.70000 [K], p_1: 2.95800 [A], shift/k_B:  -0.03292533 [K], tailcorrection: no
  H_com -   C_co2 [LENNARD_JONES] p_0/k_B:  31.47856 [K], p_1: 2.87900 [A], shift/k_B:  -0.02400792 [K], tailcorrection: no
  H_com -   O_co2 [LENNARD_JONES] p_0/k_B:  53.84515 [K], p_1: 3.00400 [A], shift/k_B:  -0.05299218 [K], tailcorrection: no
  H_com -    N_n2 [LENNARD_JONES] p_0/k_B:  36.34831 [K], p_1: 3.13400 [A], shift/k_B:  -0.04612251 [K], tailcorrection: no
  H_com -      Ar [LENNARD_JONES] p_0/k_B:  66.30731 [K], p_1: 3.14900 [A], shift/k_B:  -0.08658209 [K], tailcorrection: no
  H_com -      Ow [LENNARD_JONES] p_0/k_B:  57.35443 [K], p_1: 3.02750 [A], shift/k_B:  -0.05914696 [K], tailcorrection: no
  H_com -  C_benz [LENNARD_JONES] p_0/k_B:  33.56620 [K], p_1: 3.27900 [A], shift/k_B:  -0.05586534 [K], tailcorrection: no
  H_com -  H_benz [LENNARD_JONES] p_0/k_B:  30.56166 [K], p_1: 2.65900 [A], shift/k_B:  -0.01446799 [K], tailcorrection: no
  H_com -   N_dmf [LENNARD_JONES] p_0/k_B:  54.18487 [K], p_1: 3.07900 [A], shift/k_B:  -0.06182793 [K], tailcorrection: no
  H_com -  Co_dmf [LENNARD_JONES] p_0/k_B:  42.83690 [K], p_1: 3.32900 [A], shift/k_B:  -0.07806841 [K], tailcorrection: no
  H_com -  Cm_dmf [LENNARD_JONES] p_0/k_B:  54.18487 [K], p_1: 3.37900 [A], shift/k_B:  -0.10798493 [K], tailcorrection: no
  H_com -   O_dmf [LENNARD_JONES] p_0/k_B:  60.58052 [K], p_1: 2.95900 [A], shift/k_B:  -0.05446001 [K], tailcorrection: no
  H_com -   H_dmf [LENNARD_JONES] p_0/k_B:  17.13476 [K], p_1: 2.57900 [A], shift/k_B:  -0.00675330 [K], tailcorrection: no
  H_com -      Kr [LENNARD_JONES] p_0/k_B:  78.14653 [K], p_1: 3.29700 [A], shift/k_B:  -0.13440302 [K], tailcorrection: no
  H_com -      Xe [LENNARD_JONES] p_0/k_B:  90.05942 [K], p_1: 3.52900 [A], shift/k_B:  -0.23287915 [K], tailcorrection: no
  C_co2 -   C_co2 [LENNARD_JONES] p_0/k_B:  27.00000 [K], p_1: 2.80000 [A], shift/k_B:  -0.01742667 [K], tailcorrection: no
  C_co2 -   O_co2 [LENNARD_JONES] p_0/k_B:  46.18441 [K], p_1: 2.92500 [A], shift/k_B:  -0.03873754 [K], tailcorrection: no
  C_co2 -    N_n2 [LENNARD_JONES] p_0/k_B:  31.17691 [K], p_1: 3.05500 [A], shift/k_B:  -0.03394335 [K], tailcorrection: no
  C_co2 -      Ar [LENNARD_JONES] p_0/k_B:  56.87354 [K], p_1: 3.07000 [A], shift/k_B:  -0.06376631 [K], tailcorrection: no
  C_co2 -      Ow [LENNARD_JONES] p_0/k_B:  49.19442 [K], p_1: 2.94850 [A], shift/k_B:  -0.04329120 [K], tailcorrection: no
  C_co2 -  C_benz [LENNARD_JONES] p_0/k_B:  28.79062 [K], p_1: 3.20000 [A], shift/k_B:  -0.04139685 [K], tailcorrection: no
  C_co2 -  H_benz [LENNARD_JONES] p_0/k_B:  26.21355 [K], p_1: 2.58000 [A], shift/k_B:  -0.01035556 [K], tailcorrection: no
  C_co2 -   N_dmf [LENNARD_JONES] p_0/k_B:  46.47580 [K], p_1: 3.00000 [A], shift/k_B:  -0.04537544 [K], tailcorrection: no
  C_co2 -  Co_dmf [LENNARD_JONES] p_0/k_B:  36.74235 [K], p_1: 3.25000 [A], shift/k_B:  -0.05797866 [K], tailcorrection: no
  C_co2 -  Cm_dmf [LENNARD_JONES] p_0/k_B:  46.47580 [K], p_1: 3.30000 [A], shift/k_B:  -0.08037022 [K], tailcorrection: no
  C_co2 -   O_dmf [LENNARD_JONES] p_0/k_B:  51.96152 [K], p_1: 2.88000 [A], shift/k_B:  -0.03971242 [K], tailcorrection: no
  C_co2 -   H_dmf [LENNARD_JONES] p_0/k_B:  14.69694 [K], p_1: 2.50000 [A], shift/k_B:  -0.00480622 [K], tailcorrection: no
  C_co2 -      Kr [LENNARD_JONES] p_0/k_B:  67.02835 [K], p_1: 3.21800 [A], shift/k_B:  -0.09967489 [K], tailcorrection: no
  C_co2 -      Xe [LENNARD_JONES] p_0/k_B:  77.24636 [K], p_1: 3.45000 [A], shift/k_B:  -0.17438928 [K], tailcorrection: no
  O_co2 -   O_co2 [LENNARD_JONES] p_0/k_B:  79.00000 [K], p_1: 3.05000 [A], shift/k_B:  -0.08516900 [K], tailcorrection: no
  O_co2 -    N_n2 [LENNARD_JONES] p_0/k_B:  53.32917 [K], p_1: 3.18000 [A], shift/k_B:  -0.07384985 [K], tailcorrection: no
  O_co2 -      Ar [LENNARD_JONES] p_0/k_B:  97.28412 [K], p_1: 3.19500 [A], shift/k_B:  -0.13857501 [K], tailcorrection: no
  O_co2 -      Ow [LENNARD_JONES] p_0/k_B:  84.14872 [K], p_1: 3.07350 [A], shift/k_B:  -0.09499412 [K], tailcorrection: no
  O_co2 -  C_benz [LENNARD_JONES] p_0/k_B:  49.24733 [K], p_1: 3.32500 [A], shift/k_B:  -0.08910633 [K], tailcorrection: no
  O_co2 -  H_benz [LENNARD_JONES] p_0/k_B:  44.83916 [K], p_1: 2.70500 [A], shift/k_B:  -0.02352754 [K], tailcorrection: no
  O_co2 -   N_dmf [LENNARD_JONES] p_0/k_B:  79.49843 [K], p_1: 3.12500 [A], shift/k_B:  -0.09915068 [K], tailcorrection: no
  O_co2 -  Co_dmf [LENNARD_JONES] p_0/k_B:  62.84903 [K], p_1: 3.37500 [A], shift/k_B:  -0.12436516 [K], tailcorrection: no
  O_co2 -  Cm_dmf [LENNARD_JONES] p_0/k_B:  79.49843 [K], p_1: 3.42500 [A], shift/k_B:  -0.17181444 [K], tailcorrection: no
  O_co2 -   O_dmf [LENNARD_JONES] p_0/k_B:  88.88194 [K], p_1: 3.00500 [A], shift/k_B:  -0.08764877 [K], tailcorrection: no
  O_co2 -   H_dmf [LENNARD_JONES] p_0/k_B:  25.13961 [K], p_1: 2.62500 [A], shift/k_B:  -0.01101690 [K], tailcorrection: no
  O_co2 -      Kr [LENNARD_JONES] p_0/k_B: 114.65426 [K], p_1: 3.34300 [A], shift/k_B:  -0.21427817 [K], tailcorrection: no
  O_co2 -      Xe [LENNARD_JONES] p_0/k_B: 132.13251 [K], p_1: 3.57500 [A], shift/k_B:  -0.36926210 [K], tailcorrection: no
   N_n2 -    N_n2 [LENNARD_JONES] p_0/k_B:  36.00000 [K], p_1: 3.31000 [A], shift/k_B:  -0.06339451 [K], tailcorrection: no
   N_n2 -      Ar [LENNARD_JONES] p_0/k_B:  65.67191 [K], p_1: 3.32500 [A], shift/k_B:  -0.11882436 [K], tailcorrection: no
   N_n2 -      Ow [LENNARD_JONES] p_0/k_B:  56.80482 [K], p_1: 3.20350 [A], shift/k_B:  -0.08221459 [K], tailcorrection: no
   N_n2 -  C_benz [LENNARD_JONES] p_0/k_B:  33.24455 [K], p_1: 3.45500 [A], shift/k_B:  -0.07570661 [K], tailcorrection: no
   N_n2 -  H_benz [LENNARD_JONES] p_0/k_B:  30.26880 [K], p_1: 2.83500 [A], shift/k_B:  -0.02104798 [K], tailcorrection: no
   N_n2 -   N_dmf [LENNARD_JONES] p_0/k_B:  53.66563 [K], p_1: 3.25500 [A], shift/k_B:  -0.08546764 [K], tailcorrection: no
   N_n2 -  Co_dmf [LENNARD_JONES] p_0/k_B:  42.42641 [K], p_1: 3.50500 [A], shift/k_B:  -0.10530940 [K], tailcorrection: no
   N_n2 -  Cm_dmf [LENNARD_JONES] p_0/k_B:  53.66563 [K], p_1: 3.55500 [A], shift/k_B:  -0.14501493 [K], tailcorrection: no
   N_n2 -   O_dmf [LENNARD_JONES] p_0/k_B:  60.00000 [K], p_1: 3.13500 [A], shift/k_B:  -0.07628004 [K], tailcorrection: no
   N_n2 -   H_dmf [LENNARD_JONES] p_0/k_B:  16.97056 [K], p_1: 2.75500 [A], shift/k_B:  -0.00993882 [K], tailcorrection: no
   N_n2 -      Kr [LENNARD_JONES] p_0/k_B:  77.39767 [K], p_1: 3.47300 [A], shift/k_B:  -0.18183347 [K], tailcorrection: no
   N_n2 -      Xe [LENNARD_JONES] p_0/k_B:  89.19641 [K], p_1: 3.70500 [A], shift/k_B:  -0.30879681 [K], tailcorrection: no
     Ar -      Ar [LENNARD_JONES] p_0/k_B: 119.80000 [K], p_1: 3.34000 [A], shift/k_B:  -0.22269280 [K], tailcorrection: no
     Ar -      Ow [LENNARD_JONES] p_0/k_B: 103.62448 [K], p_1: 3.21850 [A], shift/k_B:  -0.15423903 [K], tailcorrection: no
     Ar -  C_benz [LENNARD_JONES] p_0/k_B:  60.64536 [K], p_1: 3.47000 [A], shift/k_B:  -0.14174018 [K], tailcorrection: no
     Ar -  H_benz [LENNARD_JONES] p_0/k_B:  55.21694 [K], p_1: 2.85000 [A], shift/k_B:  -0.03963109 [K], tailcorrection: no
     Ar -   N_dmf [LENNARD_JONES] p_0/k_B:  97.89791 [K], p_1: 3.27000 [A], shift/k_B:  -0.16027086 [K], tailcorrection: no
     Ar -  Co_dmf [LENNARD_JONES] p_0/k_B:  77.39509 [K], p_1: 3.52000 [A], shift/k_B:  -0.19709026 [K], tailcorrection: no
     Ar -  Cm_dmf [LENNARD_JONES] p_0/k_B:  97.89791 [K], p_1: 3.57000 [A], shift/k_B:  -0.27130264 [K], tailcorrection: no
     Ar -   O_dmf [LENNARD_JONES] p_0/k_B: 109.45319 [K], p_1: 3.15000 [A], shift/k_B:  -0.14319311 [K], tailcorrection: no
     Ar -   H_dmf [LENNARD_JONES] p_0/k_B:  30.95804 [K], p_1: 2.77000 [A], shift/k_B:  -0.01873091 [K], tailcorrection: no
     Ar -      Kr [LENNARD_JONES] p_0/k_B: 141.19037 [K], p_1: 3.48800 [A], shift/k_B:  -0.34038816 [K], tailcorrection: no
     Ar -      Xe [LENNARD_JONES] p_0/k_B: 162.71386 [K], p_1: 3.72000 [A], shift/k_B:  -0.57712394 [K], tailcorrection: no
     Ow -      Ow [LENNARD_JONES] p_0/k_B:  89.63300 [K], p_1: 3.09700 [A], shift/k_B:  -0.10591545 [K], tailcorrection: no
     Ow -  C_benz [LENNARD_JONES] p_0/k_B:  52.45696 [K], p_1: 3.34850 [A], shift/k_B:  -0.09900849 [K], tailcorrection: no
     Ow -  H_benz [LENNARD_JONES] p_0/k_B:  47.76149 [K], p_1: 2.72850 [A], shift/k_B:  -0.02639576 [K], tailcorrection: no
     Ow -   N_dmf [LENNARD_JONES] p_0/k_B:  84.67963 [K], p_1: 3.14850 [A], shift/k_B:  -0.11046685 [K], tailcorrection: no
     Ow -  Co_dmf [LENNARD_JONES] p_0/k_B:  66.94513 [K], p_1: 3.39850 [A], shift/k_B:  -0.13809914 [K], tailcorrection: no
     Ow -  Cm_dmf [LENNARD_JONES] p_0/k_B:  84.67963 [K], p_1: 3.44850 [A], shift/k_B:  -0.19067255 [K], tailcorrection: no
     Ow -   O_dmf [LENNARD_JONES] p_0/k_B:  94.67471 [K], p_1: 3.02850 [A], shift/k_B:  -0.09782722 [K], tailcorrection: no
     Ow -   H_dmf [LENNARD_JONES] p_0/k_B:  26.77805 [K], p_1: 2.64850 [A], shift/k_B:  -0.01237944 [K], tailcorrection: no
     Ow -      Kr [LENNARD_JONES] p_0/k_B: 122.12670 [K], p_1: 3.36650 [A], shift/k_B:  -0.23803624 [K], tailcorrection: no
     Ow -      Xe [LENNARD_JONES] p_0/k_B: 140.74407 [K], p_1: 3.59850 [A], shift/k_B:  -0.40908705 [K], tailcorrection: no
 C_benz -  C_benz [LENNARD_JONES] p_0/k_B:  30.70000 [K], p_1: 3.60000 [A], shift/k_B:  -0.08945594 [K], tailcorrection: no
 C_benz -  H_benz [LENNARD_JONES] p_0/k_B:  27.95201 [K], p_1: 2.98000 [A], shift/k_B:  -0.02621690 [K], tailcorrection: no
 C_benz -   N_dmf [LENNARD_JONES] p_0/k_B:  49.55805 [K], p_1: 3.40000 [A], shift/k_B:  -0.10250274 [K], tailcorrection: no
 C_benz -  Co_dmf [LENNARD_JONES] p_0/k_B:  39.17908 [K], p_1: 3.65000 [A], shift/k_B:  -0.12400518 [K], tailcorrection: no
 C_benz -  Cm_dmf [LENNARD_JONES] p_0/k_B:  49.55805 [K], p_1: 3.70000 [A], shift/k_B:  -0.17018595 [K], tailcorrection: no
 C_benz -   O_dmf [LENNARD_JONES] p_0/k_B:  55.40758 [K], p_1: 3.28000 [A], shift/k_B:  -0.09238546 [K], tailcorrection: no
 C_benz -   H_dmf [LENNARD_JONES] p_0/k_B:  15.67163 [K], p_1: 2.90000 [A], shift/k_B:  -0.01248499 [K], tailcorrection: no
 C_benz -      Kr [LENNARD_JONES] p_0/k_B:  71.47363 [K], p_1: 3.61800 [A], shift/k_B:  -0.21458700 [K], tailcorrection: no
 C_benz -      Xe [LENNARD_JONES] p_0/k_B:  82.36929 [K], p_1: 3.85000 [A], shift/k_B:  -0.35894533 [K], tailcorrection: no
 H_benz -  H_benz [LENNARD_JONES] p_0/k_B:  25.45000 [K], p_1: 2.36000 [A], shift/k_B:  -0.00588989 [K], tailcorrection: no
 H_benz -   N_dmf [LENNARD_JONES] p_0/k_B:  45.12206 [K], p_1: 2.78000 [A], shift/k_B:  -0.02789736 [K], tailcorrection: no
 H_benz -  Co_dmf [LENNARD_JONES] p_0/k_B:  35.67212 [K], p_1: 3.03000 [A], shift/k_B:  -0.03696959 [K], tailcorrection: no
 H_benz -  Cm_dmf [LENNARD_JONES] p_0/k_B:  45.12206 [K], p_1: 3.08000 [A], shift/k_B:  -0.05158715 [K], tailcorrection: no
 H_benz -   O_dmf [LENNARD_JONES] p_0/k_B:  50.44799 [K], p_1: 2.66000 [A], shift/k_B:  -0.02393617 [K], tailcorrection: no
 H_benz -   H_dmf [LENNARD_JONES] p_0/k_B:  14.26885 [K], p_1: 2.28000 [A], shift/k_B:  -0.00268504 [K], tailcorrection: no
 H_benz -      Kr [LENNARD_JONES] p_0/k_B:  65.07596 [K], p_1: 2.99800 [A], shift/k_B:  -0.06328157 [K], tailcorrection: no
 H_benz -      Xe [LENNARD_JONES] p_0/k_B:  74.99633 [K], p_1: 3.23000 [A], shift/k_B:  -0.11404139 [K], tailcorrection: no
  N_dmf -   N_dmf [LENNARD_JONES] p_0/k_B:  80.00000 [K], p_1: 3.20000 [A], shift/k_B:  -0.11502869 [K], tailcorrection: no
  N_dmf -  Co_dmf [LENNARD_JONES] p_0/k_B:  63.24555 [K], p_1: 3.45000 [A], shift/k_B:  -0.14278144 [K], tailcorrection: no
  N_dmf -  Cm_dmf [LENNARD_JONES] p_0/k_B:  80.00000 [K], p_1: 3.50000 [A], shift/k_B:  -0.19688078 [K], tailcorrection: no
  N_dmf -   O_dmf [LENNARD_JONES] p_0/k_B:  89.44272 [K], p_1: 3.08000 [A], shift/k_B:  -0.10225808 [K], tailcorrection: no
  N_dmf -   H_dmf [LENNARD_JONES] p_0/k_B:  25.29822 [K], p_1: 2.70000 [A], shift/k_B:  -0.01312770 [K], tailcorrection: no
  N_dmf -      Kr [LENNARD_JONES] p_0/k_B: 115.37764 [K], p_1: 3.41800 [A], shift/k_B:  -0.24631709 [K], tailcorrection: no
  N_dmf -      Xe [LENNARD_JONES] p_0/k_B: 132.96616 [K], p_1: 3.65000 [A], shift/k_B:  -0.42084946 [K], tailcorrection: no
 Co_dmf -  Co_dmf [LENNARD_JONES] p_0/k_B:  50.00000 [K], p_1: 3.70000 [A], shift/k_B:  -0.17170365 [K], tailcorrection: no
 Co_dmf -  Cm_dmf [LENNARD_JONES] p_0/k_B:  63.24555 [K], p_1: 3.75000 [A], shift/k_B:  -0.23538862 [K], tailcorrection: no
 Co_dmf -   O_dmf [LENNARD_JONES] p_0/k_B:  70.71068 [K], p_1: 3.33000 [A], shift/k_B:  -0.12909950 [K], tailcorrection: no
 Co_dmf -   H_dmf [LENNARD_JONES] p_0/k_B:  20.00000 [K], p_1: 2.95000 [A], shift/k_B:  -0.01765382 [K], tailcorrection: no
 Co_dmf -      Kr [LENNARD_JONES] p_0/k_B:  91.21403 [K], p_1: 3.66800 [A], shift/k_B:  -0.29734167 [K], tailcorrection: no
 Co_dmf -      Xe [LENNARD_JONES] p_0/k_B: 105.11898 [K], p_1: 3.90000 [A], shift/k_B:  -0.49491340 [K], tailcorrection: no
 Cm_dmf -  Cm_dmf [LENNARD_JONES] p_0/k_B:  80.00000 [K], p_1: 3.80000 [A], shift/k_B:  -0.32234871 [K], tailcorrection: no
 Cm_dmf -   O_dmf [LENNARD_JONES] p_0/k_B:  89.44272 [K], p_1: 3.38000 [A], shift/k_B:  -0.17856683 [K], tailcorrection: no
 Cm_dmf -   H_dmf [LENNARD_JONES] p_0/k_B:  25.29822 [K], p_1: 3.00000 [A], shift/k_B:  -0.02469926 [K], tailcorrection: no
 Cm_dmf -      Kr [LENNARD_JONES] p_0/k_B: 115.37764 [K], p_1: 3.71800 [A], shift/k_B:  -0.40791166 [K], tailcorrection: no
 Cm_dmf -      Xe [LENNARD_JONES] p_0/k_B: 132.96616 [K], p_1: 3.95000 [A], shift/k_B:  -0.67568369 [K], tailcorrection: no
  O_dmf -   O_dmf [LENNARD_JONES] p_0/k_B: 100.00000 [K], p_1: 2.96000 [A], shift/k_B:  -0.09007929 [K], tailcorrection: no
  O_dmf -   H_dmf [LENNARD_JONES] p_0/k_B:  28.28427 [K], p_1: 2.58000 [A], shift/k_B:  -0.01117359 [K], tailcorrection: no
  O_dmf -      Kr [LENNARD_JONES] p_0/k_B: 128.99612 [K], p_1: 3.29800 [A], shift/k_B:  -0.22226234 [K], tailcorrection: no
  O_dmf -      Xe [LENNARD_JONES] p_0/k_B: 148.66069 [K], p_1: 3.53000 [A], shift/k_B:  -0.38506618 [K], tailcorrection: no
  H_dmf -   H_dmf [LENNARD_JONES] p_0/k_B:   8.00000 [K], p_1: 2.20000 [A], shift/k_B:  -0.00121502 [K], tailcorrection: no
  H_dmf -      Kr [LENNARD_JONES] p_0/k_B:  36.48561 [K], p_1: 2.91800 [A], shift/k_B:  -0.03016589 [K], tailcorrection: no
  H_dmf -      Xe [LENNARD_JONES] p_0/k_B:  42.04759 [K], p_1: 3.15000 [A], shift/k_B:  -0.05500914 [K], tailcorrection: no
     Kr -      Kr [LENNARD_JONES] p_0/k_B: 166.40000 [K], p_1: 3.63600 [A], shift/k_B:  -0.51467477 [K], tailcorrection: no
     Kr -      Xe [LENNARD_JONES] p_0/k_B: 191.76652 [K], p_1: 3.86800 [A], shift/k_B:  -0.85936317 [K], tailcorrection: no
     Xe -      Xe [LENNARD_JONES] p_0/k_B: 221.00000 [K], p_1: 4.10000 [A], shift/k_B:  -1.40403037 [K], tailcorrection: no


MoleculeDefinitions:
===========================================================================
Component 0 [benzene] (Adsorbate molecule)

	MoleculeDefinitions: TraPPE
	Component contains (at least some) atoms which are charged
	Component contains no atoms with point dipoles (polarization)
	Component has a net charge of -0.000000

	Ideal chain Rosenbluth weight: 1.000000
	Ideal chain total energy: 0.000000

	Critical temparure [K]: 562.050000
	Critical pressure [Pa]: 4894000.000000
	Acentric factor [-]: 0.209200

	Vapour=stable, Liquid=metastable

	MolFraction:           1.0000000000 [-]
	Compressibility:       0.0000000000 [-]

	Density of the bulk fluid phase:       0.0000000000 [kg/m^3]

	Amount of excess molecules:       0.0000000000 [-]

	Conversion factor molecules/unit cell -> mol/kg:       0.1623747175 [-]
	Conversion factor molecules/unit cell -> gr/gr:      12.6729634976 [-]
	Conversion factor molecules/unit cell -> cm^3 STP/gr:       3.6394629804 [-]
	Conversion factor molecules/unit cell -> cm^3 STP/cm^3:       2.1592046669 [-]
	Conversion factor mol/kg -> cm^3 STP/gr:      22.4139757476 [-]
	Conversion factor mol/kg -> cm^3 STP/cm^3:      13.2976654244 [-]

	Partial pressure: -16605402.0000000000 [Pa]
	                  -124540.5150000000 [Torr]
	                     -166.0540200000 [bar]
	                     -163.8825758697 [atm]

	Fugacity coefficient:      -1.0000000000 [-]

	Partial fugacity: 16605402.0000000000 [Pa]
	                   124540.5150000000 [Torr]
	                      166.0540200000 [bar]
	                      163.8825758697 [atm]

	Molecule contains 12 number of atoms
		atom:    0  is of type:   28 [    C_benz] (group: 0)
		atom:    1  is of type:   28 [    C_benz] (group: 0)
		atom:    2  is of type:   28 [    C_benz] (group: 0)
		atom:    3  is of type:   28 [    C_benz] (group: 0)
		atom:    4  is of type:   28 [    C_benz] (group: 0)
		atom:    5  is of type:   28 [    C_benz] (group: 0)
		atom:    6  is of type:   29 [    H_benz] (group: 0)
		atom:    7  is of type:   29 [    H_benz] (group: 0)
		atom:    8  is of type:   29 [    H_benz] (group: 0)
		atom:    9  is of type:   29 [    H_benz] (group: 0)
		atom:   10  is of type:   29 [    H_benz] (group: 0)
		atom:   11  is of type:   29 [    H_benz] (group: 0)

	Molecule contains 0 chirality centers

	Molecule contains 1 number of groups

		group: 0 containing: 12 elements
		-------------------------------------------------
		the group is rigid and nonlinear
		Mass: 78.047640 [a.u.]
		Mass: 7.518563 [kg/m^3]

		Rotational Degrees of freedom: 3
		Diagonalized inertia vector:     176.4676545231
		                                  88.2338325899
		                                  88.2338297934
		element: 0 atom: 0 (C_benz) Anisotropy: 0.000000 Position: 0.000016 -0.133163 1.385616 Connectivity: 3 (1 5 6 )
		element: 1 atom: 1 (C_benz) Anisotropy: 0.000000 Position: -0.000328 -1.266560 0.577485 Connectivity: 3 (0 2 7 )
		element: 2 atom: 2 (C_benz) Anisotropy: 0.000000 Position: 0.000233 -1.133397 -0.808131 Connectivity: 3 (1 3 8 )
		element: 3 atom: 3 (C_benz) Anisotropy: 0.000000 Position: -0.000059 0.133163 -1.385616 Connectivity: 3 (2 4 9 )
		element: 4 atom: 4 (C_benz) Anisotropy: 0.000000 Position: -0.000194 1.266561 -0.577485 Connectivity: 3 (3 5 10 )
		element: 5 atom: 5 (C_benz) Anisotropy: 0.000000 Position: 0.000240 1.133397 0.808131 Connectivity: 3 (0 4 11 )
		element: 6 atom: 6 (H_benz) Anisotropy: 0.000000 Position: 0.000023 -0.236480 2.460663 Connectivity: 1 (0 )
		element: 7 atom: 7 (H_benz) Anisotropy: 0.000000 Position: 0.000262 -2.249236 1.025534 Connectivity: 1 (1 )
		element: 8 atom: 8 (H_benz) Anisotropy: 0.000000 Position: 0.000589 -2.012757 -1.435129 Connectivity: 1 (2 )
		element: 9 atom: 9 (H_benz) Anisotropy: 0.000000 Position: 0.000317 0.236479 -2.460663 Connectivity: 1 (3 )
		element: 10 atom: 10 (H_benz) Anisotropy: 0.000000 Position: -0.000420 2.249236 -1.025535 Connectivity: 1 (4 )
		element: 11 atom: 11 (H_benz) Anisotropy: 0.000000 Position: 0.000330 2.012757 1.435129 Connectivity: 1 (5 )

		Dipole:           0.0005443763 [D]
		Quadrupole:      -5.7126418267       2.8563201813       2.8563216454 [D Angstrom]
		Quadrupole tensor [D Angstrom]
				      -5.7126415627      -0.0014751061      -0.0002925408
				      -0.0014751061       2.8563199519       0.0000001378
				      -0.0002925408       0.0000001378       2.8563216108

	Starting bead for growth               : 0

	Number of atoms                        : 12

	Number of constraint bonds             : 0
	Number of constraint bends             : 0
	Number of constraint inversion bends   : 0
	Number of constraint torsions          : 0
	Number of constraint improper torsions : 0
	Number of constraint improper torsions : 0

	Number of bonds                        : 12
	Number of Urey-Bradleys                : 0
	Number of bends                        : 0
	Number of inversion bends              : 0
	Number of torsions                     : 0
	Number of improper torsions            : 0
	Number of improper torsions            : 0

	Number of bond/bond cross terms        : 0
	Number of bond/bend cross terms        : 0
	Number of bend/bend cross terms        : 0
	Number of stretch/torsion cross terms  : 0
	Number of bend/torsion cross terms     : 0

	Number of charges                      : 12
	Number of bond-dipoles                 : 0

	Number of intra Van der Waals                             : 0
	Number of intra charge-charge Coulomb                     : 0
	Number of intra charge-bonddipole Coulomb                 : 0
	Number of intra bonddipole-bonddipole Coulomb             : 0

	Number of excluded intra charge-charge Coulomb                     : 66
	Number of excluded intra charge-bonddipole Coulomb                 : 0
	Number of excluded intra bonddipole-bonddipole Coulomb             : 0

	Number of cbmc-config moves                               : 0

	Particle Moves:             
		ProbabilityTranslationMove:                  33.333333
			TranslationDirection:      XYZ
		Percentage of random translation moves:       0.000000
		Percentage of rotation moves:                 33.333333
		Percentage of partial reinsertion moves:      0.000000
		Percentage of regrow moves:                   33.333333
		Percentage of regrow-in-place moves:          0.000000
		Percentage of regrow-in-plane moves:          0.000000
		Percentage of identity-change moves:          0.000000
		Percentage of swap (insert/delete) moves:     0.000000
		Percentage of Widom insertion moves:          0.000000
		Percentage of surface-area moves:             0.000000
		Percentage of Gibbs particle-transfer moves:  0.000000
		Percentage of Gibbs identity-change moves:    0.000000

	System Moves (percentage per cycle):
		Percentage of parallel-tempering moves:       0.000000
		Percentage of hyper-parallel-tempering moves: 0.000000
		Percentage of parallel-mol-fraction moves:    0.000000
			   Component A: 0 B: 1
		Percentage of chiral inversion moves:         0.000000
		Percentage of volume-change moves:            0.000000
		Percentage of box-shape-change moves:         0.000000
		Percentage of Gibbs volume-change moves:      0.000000
		Percentage of Hybrid-NVE moves:               0.000000
		Percentage of Hybrid-NPH moves:               0.000000
[...]
	Block[ 4]            0.00000 [K]
	------------------------------------------------------------------------------
	Average              0.00000 [K] +/-            0.00000 [K]

Average Adsorbate Intra charge-charge Coulomb energy:
=======================================
	Block[ 0]            0.00000 [K]
	Block[ 1]            0.00000 [K]
	Block[ 2]            0.00000 [K]
	Block[ 3]            0.00000 [K]
	Block[ 4]            0.00000 [K]
	------------------------------------------------------------------------------
	Average              0.00000 [K] +/-            0.00000 [K]

Average Adsorbate Intra charge-bonddipole Coulomb energy:
=======================================
	Block[ 0]            0.00000 [K]
	Block[ 1]            0.00000 [K]
	Block[ 2]            0.00000 [K]
	Block[ 3]            0.00000 [K]
	Block[ 4]            0.00000 [K]
	------------------------------------------------------------------------------
	Average              0.00000 [K] +/-            0.00000 [K]

Average Adsorbate Intra bonddipole-bonddipole Coulomb energy:
=======================================
	Block[ 0]            0.00000 [K]
	Block[ 1]            0.00000 [K]
	Block[ 2]            0.00000 [K]
	Block[ 3]            0.00000 [K]
	Block[ 4]            0.00000 [K]
	------------------------------------------------------------------------------
	Average              0.00000 [K] +/-            0.00000 [K]

Average Cation Bond stretch energy:
=================================
	Block[ 0]            0.00000 [K]
	Block[ 1]            0.00000 [K]
	Block[ 2]            0.00000 [K]
	Block[ 3]            0.00000 [K]
	Block[ 4]            0.00000 [K]
	------------------------------------------------------------------------------
	Average              0.00000 [K] +/-            0.00000 [K]

Average Cation UreyBradley stretch energy:
==========================================
	Block[ 0]            0.00000 [K]
	Block[ 1]            0.00000 [K]
	Block[ 2]            0.00000 [K]
	Block[ 3]            0.00000 [K]
	Block[ 4]            0.00000 [K]
	------------------------------------------------------------------------------
	Average              0.00000 [K] +/-            0.00000 [K]

Average Cation Bend angle energy:
=================================
	Block[ 0]            0.00000 [K]
	Block[ 1]            0.00000 [K]
	Block[ 2]            0.00000 [K]
	Block[ 3]            0.00000 [K]
	Block[ 4]            0.00000 [K]
	------------------------------------------------------------------------------
	Average              0.00000 [K] +/-            0.00000 [K]

Average Cation Bend angle inversion energy:
===========================================
	Block[ 0]            0.00000 [K]
	Block[ 1]            0.00000 [K]
	Block[ 2]            0.00000 [K]
	Block[ 3]            0.00000 [K]
	Block[ 4]            0.00000 [K]
	------------------------------------------------------------------------------
	Average              0.00000 [K] +/-            0.00000 [K]

Average Cation Torsion energy:
==============================
	Block[ 0]            0.00000 [K]
	Block[ 1]            0.00000 [K]
	Block[ 2]            0.00000 [K]
	Block[ 3]            0.00000 [K]
	Block[ 4]            0.00000 [K]
	------------------------------------------------------------------------------
	Average              0.00000 [K] +/-            0.00000 [K]

Average Cation Improper Torsion energy:
=======================================
	Block[ 0]            0.00000 [K]
	Block[ 1]            0.00000 [K]
	Block[ 2]            0.00000 [K]
	Block[ 3]            0.00000 [K]
	Block[ 4]            0.00000 [K]
	------------------------------------------------------------------------------
	Average              0.00000 [K] +/-            0.00000 [K]

Average Cation Bond-Bond cross term energy:
=================================================
	Block[ 0]            0.00000 [K]
	Block[ 1]            0.00000 [K]
	Block[ 2]            0.00000 [K]
	Block[ 3]            0.00000 [K]
	Block[ 4]            0.00000 [K]
	------------------------------------------------------------------------------
	Average              0.00000 [K] +/-            0.00000 [K]

Average Cation Bend-Bend cross term energy:
===========================================
	Block[ 0]            0.00000 [K]
	Block[ 1]            0.00000 [K]
	Block[ 2]            0.00000 [K]
	Block[ 3]            0.00000 [K]
	Block[ 4]            0.00000 [K]
	------------------------------------------------------------------------------
	Average              0.00000 [K] +/-            0.00000 [K]

Average Cation Bond-Bend cross term energy:
==============================================
	Block[ 0]            0.00000 [K]
	Block[ 1]            0.00000 [K]
	Block[ 2]            0.00000 [K]
	Block[ 3]            0.00000 [K]
	Block[ 4]            0.00000 [K]
	------------------------------------------------------------------------------
	Average              0.00000 [K] +/-            0.00000 [K]

Average Cation Bond-Torsion cross term energy:
==============================================
	Block[ 0]            0.00000 [K]
	Block[ 1]            0.00000 [K]
	Block[ 2]            0.00000 [K]
	Block[ 3]            0.00000 [K]
	Block[ 4]            0.00000 [K]
	------------------------------------------------------------------------------
	Average              0.00000 [K] +/-            0.00000 [K]

Average Cation Bend-Torsion cross term energy:
==============================================
	Block[ 0]            0.00000 [K]
	Block[ 1]            0.00000 [K]
	Block[ 2]            0.00000 [K]
	Block[ 3]            0.00000 [K]
	Block[ 4]            0.00000 [K]
	------------------------------------------------------------------------------
	Average              0.00000 [K] +/-            0.00000 [K]

Average Cation Intra Van der Waals energy:
==========================================
	Block[ 0]            0.00000 [K]
	Block[ 1]            0.00000 [K]
	Block[ 2]            0.00000 [K]
	Block[ 3]            0.00000 [K]
	Block[ 4]            0.00000 [K]
	------------------------------------------------------------------------------
	Average              0.00000 [K] +/-            0.00000 [K]

Average Cation Intra charge-charge Coulomb energy:
====================================
	Block[ 0]            0.00000 [K]
	Block[ 1]            0.00000 [K]
	Block[ 2]            0.00000 [K]
	Block[ 3]            0.00000 [K]
	Block[ 4]            0.00000 [K]
	------------------------------------------------------------------------------
	Average              0.00000 [K] +/-            0.00000 [K]

Average Cation Intra charge-bonddipole Coulomb energy:
====================================
	Block[ 0]            0.00000 [K]
	Block[ 1]            0.00000 [K]
	Block[ 2]            0.00000 [K]
	Block[ 3]            0.00000 [K]
	Block[ 4]            0.00000 [K]
	------------------------------------------------------------------------------
	Average              0.00000 [K] +/-            0.00000 [K]

Average Cation Intra bonddipole-bonddipole Coulomb energy:
====================================
	Block[ 0]            0.00000 [K]
	Block[ 1]            0.00000 [K]
	Block[ 2]            0.00000 [K]
	Block[ 3]            0.00000 [K]
	Block[ 4]            0.00000 [K]
	------------------------------------------------------------------------------
	Average              0.00000 [K] +/-            0.00000 [K]

Average Host-Host energy:
=========================
	Block[ 0] 0.00000            Van der Waals: 0.00000            Coulomb: 0.00000            [K]
	Block[ 1] 0.00000            Van der Waals: 0.00000            Coulomb: 0.00000            [K]
	Block[ 2] 0.00000            Van der Waals: 0.00000            Coulomb: 0.00000            [K]
	Block[ 3] 0.00000            Van der Waals: 0.00000            Coulomb: 0.00000            [K]
	Block[ 4] 0.00000            Van der Waals: 0.00000            Coulomb: 0.00000            [K]
	------------------------------------------------------------------------------
	Average   0.00000            Van der Waals: 0.000000           Coulomb: 0.00000            [K]
	      +/- 0.00000                       +/- 0.000000                +/- 0.00000            [K]

Average Adsorbate-Adsorbate energy:
===================================
	Block[ 0] -9405.94629        Van der Waals: -9261.40910        Coulomb: -144.53719         [K]
	Block[ 1] -10821.37476       Van der Waals: -10466.07282       Coulomb: -355.30194         [K]
	Block[ 2] -9822.69424        Van der Waals: -9531.46075        Coulomb: -291.23349         [K]
	Block[ 3] -9841.58188        Van der Waals: -9539.69105        Coulomb: -301.89083         [K]
	Block[ 4] -10690.33955       Van der Waals: -10384.93999       Coulomb: -305.39957         [K]
	------------------------------------------------------------------------------
	Average   -10116.38734       Van der Waals: -9836.714741       Coulomb: -279.67260         [K]
	      +/- 1092.85994                    +/- 983.472282              +/- 142.18455          [K]

Average Cation-Cation energy:
=============================
	Block[ 0] 0.00000            Van der Waals: 0.00000            Coulomb: 0.00000            [K]
	Block[ 1] 0.00000            Van der Waals: 0.00000            Coulomb: 0.00000            [K]
	Block[ 2] 0.00000            Van der Waals: 0.00000            Coulomb: 0.00000            [K]
	Block[ 3] 0.00000            Van der Waals: 0.00000            Coulomb: 0.00000            [K]
	Block[ 4] 0.00000            Van der Waals: 0.00000            Coulomb: 0.00000            [K]
	------------------------------------------------------------------------------
	Average   0.00000            Van der Waals: 0.000000           Coulomb: 0.00000            [K]
	      +/- 0.00000                       +/- 0.000000                +/- 0.00000            [K]

Average Host-Adsorbate energy:
==============================
	Block[ 0] -53237.35290       Van der Waals: -53076.81177       Coulomb: -160.54113         [K]
	Block[ 1] -54538.83154       Van der Waals: -54241.31973       Coulomb: -297.51181         [K]
	Block[ 2] -54637.74895       Van der Waals: -54463.02485       Coulomb: -174.72411         [K]
	Block[ 3] -52647.85838       Van der Waals: -52076.00107       Coulomb: -571.85731         [K]
	Block[ 4] -52653.37807       Van der Waals: -52405.34854       Coulomb: -248.02954         [K]
	------------------------------------------------------------------------------
	Average   -53543.03397       Van der Waals: -53252.501191      Coulomb: -290.53278         [K]
	      +/- 1760.97281                    +/- 1913.283367             +/- 298.40670          [K]

Average Host-Cation energy:
===========================
	Block[ 0] 0.00000            Van der Waals: 0.00000            Coulomb: 0.00000            [K]
	Block[ 1] 0.00000            Van der Waals: 0.00000            Coulomb: 0.00000            [K]
	Block[ 2] 0.00000            Van der Waals: 0.00000            Coulomb: 0.00000            [K]
	Block[ 3] 0.00000            Van der Waals: 0.00000            Coulomb: 0.00000            [K]
	Block[ 4] 0.00000            Van der Waals: 0.00000            Coulomb: 0.00000            [K]
	------------------------------------------------------------------------------
	Average   0.00000            Van der Waals: 0.000000           Coulomb: 0.00000            [K]
	      +/- 0.00000                       +/- 0.000000                +/- 0.00000            [K]

Average Adsorbate-Cation energy:
================================
	Block[ 0] 0.00000            Van der Waals: 0.00000            Coulomb: 0.00000            [K]
	Block[ 1] 0.00000            Van der Waals: 0.00000            Coulomb: 0.00000            [K]
	Block[ 2] 0.00000            Van der Waals: 0.00000            Coulomb: 0.00000            [K]
	Block[ 3] 0.00000            Van der Waals: 0.00000            Coulomb: 0.00000            [K]
	Block[ 4] 0.00000            Van der Waals: 0.00000            Coulomb: 0.00000            [K]
	------------------------------------------------------------------------------
	Average   0.00000            Van der Waals: 0.000000           Coulomb: 0.00000            [K]
	      +/- 0.00000                       +/- 0.000000                +/- 0.00000            [K]

Host polarization energy:
=======================
	Block[ 0]            0.00000 [K]
	Block[ 1]            0.00000 [K]
	Block[ 2]            0.00000 [K]
	Block[ 3]            0.00000 [K]
	Block[ 4]            0.00000 [K]
	------------------------------------------------------------------------------
	Average              0.00000 [K] +/-            0.00000 [K]

Adsorbate polarization energy:
=======================
	Block[ 0]            0.00000 [K]
	Block[ 1]            0.00000 [K]
	Block[ 2]            0.00000 [K]
	Block[ 3]            0.00000 [K]
	Block[ 4]            0.00000 [K]
	------------------------------------------------------------------------------
	Average              0.00000 [K] +/-            0.00000 [K]

Cation polarization energy:
=======================
	Block[ 0]            0.00000 [K]
	Block[ 1]            0.00000 [K]
	Block[ 2]            0.00000 [K]
	Block[ 3]            0.00000 [K]
	Block[ 4]            0.00000 [K]
	------------------------------------------------------------------------------
	Average              0.00000 [K] +/-            0.00000 [K]

Host back-polarization energy:
=======================
	Block[ 0]            0.00000 [K]
	Block[ 1]            0.00000 [K]
	Block[ 2]            0.00000 [K]
	Block[ 3]            0.00000 [K]
	Block[ 4]            0.00000 [K]
	------------------------------------------------------------------------------
	Average              0.00000 [K] +/-            0.00000 [K]

Adsorbate back-polarization energy:
=======================
	Block[ 0]            0.00000 [K]
	Block[ 1]            0.00000 [K]
	Block[ 2]            0.00000 [K]
	Block[ 3]            0.00000 [K]
	Block[ 4]            0.00000 [K]
	------------------------------------------------------------------------------
	Average              0.00000 [K] +/-            0.00000 [K]

Cation back-polarization energy:
=======================
	Block[ 0]            0.00000 [K]
	Block[ 1]            0.00000 [K]
	Block[ 2]            0.00000 [K]
	Block[ 3]            0.00000 [K]
	Block[ 4]            0.00000 [K]
	------------------------------------------------------------------------------
	Average              0.00000 [K] +/-            0.00000 [K]

Tail-correction energy:
=======================
	Block[ 0]            0.00000 [K]
	Block[ 1]            0.00000 [K]
	Block[ 2]            0.00000 [K]
	Block[ 3]            0.00000 [K]
	Block[ 4]            0.00000 [K]
	------------------------------------------------------------------------------
	Average              0.00000 [K] +/-            0.00000 [K]

Distance-constraints energy:
=======================
	Block[ 0]            0.00000 [K]
	Block[ 1]            0.00000 [K]
	Block[ 2]            0.00000 [K]
	Block[ 3]            0.00000 [K]
	Block[ 4]            0.00000 [K]
	------------------------------------------------------------------------------
	Average              0.00000 [K] +/-            0.00000 [K]

Angle-constraints energy:
=======================
	Block[ 0]            0.00000 [K]
	Block[ 1]            0.00000 [K]
	Block[ 2]            0.00000 [K]
	Block[ 3]            0.00000 [K]
	Block[ 4]            0.00000 [K]
	------------------------------------------------------------------------------
	Average              0.00000 [K] +/-            0.00000 [K]

Dihedral-constraints energy:
=======================
	Block[ 0]            0.00000 [K]
	Block[ 1]            0.00000 [K]
	Block[ 2]            0.00000 [K]
	Block[ 3]            0.00000 [K]
	Block[ 4]            0.00000 [K]
	------------------------------------------------------------------------------
	Average              0.00000 [K] +/-            0.00000 [K]

Inversion-bend constraints energy:
=======================
	Block[ 0]            0.00000 [K]
	Block[ 1]            0.00000 [K]
	Block[ 2]            0.00000 [K]
	Block[ 3]            0.00000 [K]
	Block[ 4]            0.00000 [K]
	------------------------------------------------------------------------------
	Average              0.00000 [K] +/-            0.00000 [K]

Out-of-plane-distance constraints energy:
=======================
	Block[ 0]            0.00000 [K]
	Block[ 1]            0.00000 [K]
	Block[ 2]            0.00000 [K]
	Block[ 3]            0.00000 [K]
	Block[ 4]            0.00000 [K]
	------------------------------------------------------------------------------
	Average              0.00000 [K] +/-            0.00000 [K]

Exclusion-constraints energy:
=======================
	Block[ 0]            0.00000 [K]
	Block[ 1]            0.00000 [K]
	Block[ 2]            0.00000 [K]
	Block[ 3]            0.00000 [K]
	Block[ 4]            0.00000 [K]
	------------------------------------------------------------------------------
	Average              0.00000 [K] +/-            0.00000 [K]

Total energy:
=============
	Block[ 0]       -62643.29919 [K]
	Block[ 1]       -65360.20630 [K]
	Block[ 2]       -64460.44319 [K]
	Block[ 3]       -62489.44026 [K]
	Block[ 4]       -63343.71763 [K]
	------------------------------------------------------------------------------
	Average         -63659.42131 [K] +/-         2197.33188 [K]

Number of molecules:
====================

Component 0 [benzene]
-------------------------------------------------------------
	Block[ 0] 16.00000           [-]
	Block[ 1] 16.00000           [-]
	Block[ 2] 16.00000           [-]
	Block[ 3] 16.00000           [-]
	Block[ 4] 16.00000           [-]
	------------------------------------------------------------------------------
	Average                                     16.0000000000 +/-       0.0000000000 [-]
	Average loading absolute [molecules/unit cell]       16.0000000000 +/-       0.0000000000 [-]
	Average loading absolute [mol/kg framework]          2.5979954802 +/-       0.0000000000 [-]
	Average loading absolute [milligram/gram framework]        202.7674159615 +/-       0.0000000000 [-]
	Average loading absolute [cm^3 (STP)/gr framework]         58.2314076859 +/-       0.0000000000 [-]
	Average loading absolute [cm^3 (STP)/cm^3 framework]         34.5472746700 +/-       0.0000000000 [-]

	Block[ 0] 16.00000           [-]
	Block[ 1] 16.00000           [-]
	Block[ 2] 16.00000           [-]
	Block[ 3] 16.00000           [-]
	Block[ 4] 16.00000           [-]
	------------------------------------------------------------------------------
	Average                                     16.0000000000 +/-       0.0000000000 [-]
	Average loading excess [molecules/unit cell]       16.0000000000 +/-       0.0000000000 [-]
	Average loading excess [mol/kg framework]          2.5979954802 +/-       0.0000000000 [-]
	Average loading excess [milligram/gram framework]        202.7674159615 +/-       0.0000000000 [-]
	Average loading excess [cm^3 (STP)/gr framework]         58.2314076859 +/-       0.0000000000 [-]
	Average loading excess [cm^3 (STP)/cm^3 framework]         34.5472746700 +/-       0.0000000000 [-]


Average Widom Rosenbluth factor:
================================
	Block[ 0] 0 [-]
	Block[ 1] 0 [-]
	Block[ 2] 0 [-]
	Block[ 3] 0 [-]
	Block[ 4] 0 [-]
	------------------------------------------------------------------------------
	[benzene] Average Widom:   0 +/- 0.000000 [-]

Average Henry coefficient:
==========================
	Block[ 0] 0 [mol/kg/Pa]
	Block[ 1] 0 [mol/kg/Pa]
	Block[ 2] 0 [mol/kg/Pa]
	Block[ 3] 0 [mol/kg/Pa]
	Block[ 4] 0 [mol/kg/Pa]
	------------------------------------------------------------------------------
	[benzene] Average Henry coefficient:  0 +/- 0 [mol/kg/Pa]

Average adsorption energy <U_gh>_1-<U_h>_0 obtained from Widom-insertion:
(Note: the total heat of adsorption is dH=<U_gh>_1-<U_h>_0 - <U_g> - RT)
=========================================================================

Simulation finished,  0 warnings
