# vtk DataFile Version 1.0
Cube
ASCII

DATASET POLYDATA
POINTS 168 float
2.356077 2.971403 1.743410
0.719414 3.972598 3.110786
0.203545 3.269343 3.925247
5.519960 3.269343 3.925247
0.363813 1.219793 3.977176
5.680228 1.219793 3.977176
4.567124 3.968815 0.327057
4.567124 3.968815 5.643472
3.929594 0.039401 3.996810
3.929594 5.355816 3.996810
3.624124 4.093750 0.905829
0.791410 -0.233861 4.154231
0.791410 5.082554 4.154231
3.191729 4.442250 2.223765
0.073863 0.890789 0.110783
0.073863 0.890789 5.427197
5.390278 0.890789 0.110783
5.390278 0.890789 5.427197
0.256318 1.965970 1.806442
5.572733 1.965970 1.806442
0.886999 1.786114 0.907801
3.962725 3.127616 -0.066257
3.962725 3.127616 5.250158
0.110040 -0.028128 1.150919
0.110040 5.288287 1.150919
5.426455 -0.028128 1.150919
5.426455 5.288287 1.150919
1.506706 3.889310 1.333854
1.695649 1.793438 4.166816
1.375114 0.451244 3.534537
1.375114 5.767658 3.534537
-0.005633 3.132607 0.980369
5.310781 3.132607 0.980369
4.510920 1.748455 1.536403
1.730240 1.522202 0.226432
1.730240 1.522202 5.542847
4.246180 4.150544 2.434820
0.970123 4.002127 4.235065
1.004830 2.971639 4.648750
2.207047 2.129403 1.022046
3.766323 2.234028 4.131216
4.440713 -0.087051 3.022771
4.440713 5.229364 3.022771
1.483861 3.573592 2.406837
0.007240 1.064146 1.200676
5.323655 1.064146 1.200676
0.195629 4.225362 0.847747
5.512044 4.225362 0.847747
0.700191 2.271855 3.850508
3.025794 2.673430 -0.476208
3.025794 2.673430 4.840207
4.345471 3.174395 4.221575
0.853567 2.756871 0.399738
0.853567 2.756871 5.716152
1.876260 3.110073 0.629060
-0.302846 3.565051 2.986022
5.013569 3.565051 2.986022
1.965788 3.525157 4.611785
2.974894 2.449940 2.510674
0.303719 0.434332 3.209129
0.303719 5.750747 3.209129
5.620133 0.434332 3.209129
5.620133 5.750747 3.209129
1.160731 1.480207 3.231062
1.618549 1.498328 1.703637
-0.007892 4.718664 3.494074
5.308523 4.718664 3.494074
4.569858 3.820896 1.427249
2.262572 0.221050 2.917727
2.262572 5.537465 2.917727
1.029651 -0.463430 1.581735
1.029651 4.852985 1.581735
1.939878 2.483122 -0.298808
1.939878 2.483122 5.017607
4.243023 2.816161 0.968532
1.246282 -0.192128 2.634243
1.246282 5.124287 2.634243
2.075859 4.499303 2.212509
2.614880 3.989082 1.370506
0.130651 1.540551 2.825786
5.447065 1.540551 2.825786
2.632455 2.444595 3.694935
3.808874 3.062481 3.136038
-0.133380 3.067675 -0.235160
-0.133380 3.067675 5.081254
5.183034 3.067675 -0.235160
5.183034 3.067675 5.081254
2.599553 1.285028 2.415640
0.551022 -0.242543 0.028460
0.551022 -0.242543 5.344875
0.551022 5.073872 0.028460
0.551022 5.073872 5.344875
3.873310 0.783221 -0.371965
3.873310 0.783221 4.944450
3.059160 2.937551 0.716613
2.621429 0.989979 0.831659
0.075069 -0.357907 2.319380
0.075069 4.958507 2.319380
5.391483 -0.357907 2.319380
5.391483 4.958507 2.319380
1.795125 2.297353 2.610500
2.861337 0.020246 -0.039648
2.861337 0.020246 5.276766
2.861337 5.336661 -0.039648
2.861337 5.336661 5.276766
4.561670 1.034352 3.499959
1.161035 2.755172 1.563009
4.308908 -0.314263 1.569601
4.308908 5.002152 1.569601
4.754695 1.702771 4.628374
0.718551 1.821827 -0.349150
0.718551 1.821827 4.967264
2.615988 3.564350 2.845395
1.121907 3.900646 0.126470
1.121907 3.900646 5.442884
0.742005 0.774471 2.114168
3.075728 3.643033 4.097598
3.263400 1.278920 3.570913
2.453292 0.407047 4.096297
2.453292 5.723462 4.096297
-0.192823 4.279181 4.603407
5.123592 4.279181 4.603407
3.937014 0.827405 0.972379
0.362607 3.744395 1.955445
5.679022 3.744395 1.955445
1.508140 3.145367 3.556603
3.529099 3.332876 1.870455
3.048641 -0.191052 1.238703
3.048641 5.125363 1.238703
1.337247 0.668831 4.765796
3.784935 4.478548 -0.466359
3.784935 4.478548 4.850056
-0.272790 0.274939 4.438517
-0.272790 5.591354 4.438517
5.043625 0.274939 4.438517
5.043625 5.591354 4.438517
0.551450 2.708622 2.739379
2.689944 4.032326 0.116230
2.689944 4.032326 5.432645
1.800727 4.427734 3.436776
3.316965 1.900336 1.481868
3.782368 1.949875 0.224087
3.782368 1.949875 5.540501
3.997457 1.828884 2.622244
1.951902 0.321794 1.769646
1.951902 5.638209 1.769646
4.575496 -0.121080 0.294383
4.575496 -0.121080 5.610798
4.575496 5.195335 0.294383
4.575496 5.195335 5.610798
1.098775 0.623693 0.825240
1.823647 4.741212 4.707637
-0.239925 2.028848 0.532151
-0.239925 2.028848 5.848566
5.076489 2.028848 0.532151
5.076489 2.028848 5.848566
3.469985 0.301528 2.410301
3.469985 5.617943 2.410301
3.065268 4.771794 3.385446
2.734616 1.483262 -0.478819
2.734616 1.483262 4.837596
4.217160 4.215149 3.641318
1.857147 -0.449409 0.698817
1.857147 4.867006 0.698817
4.725774 2.806627 2.088014
4.712718 0.773903 2.212261
-0.468014 2.346416 3.493271
4.848400 2.346416 3.493271
LINES 0 0
POINT_DATA 168
SCALARS my_scalars float
LOOKUP_TABLE default
1.7
1.7
1.7
1.7
1.7
1.7
1.7
1.7
1.7
1.7
1.7
1.7
1.7
1.7
1.7
1.7
1.7
1.7
1.7
1.7
1.7
1.7
1.7
1.7
1.7
1.7
1.7
1.7
1.7
1.7
1.7
1.7
1.7
1.7
1.7
1.7
1.7
1.7
1.7
1.7
1.7
1.7
1.7
1.7
1.7
1.7
1.7
1.7
1.7
1.7
1.7
1.7
1.7
1.7
1.7
1.7
1.7
1.7
1.7
1.7
1.7
1.7
1.7
1.7
1.7
1.7
1.7
1.7
1.7
1.7
1.7
1.7
1.7
1.7
1.7
1.7
1.7
1.7
1.7
1.7
1.7
1.55
1.55
1.55
1.55
1.55
1.55
1.55
1.55
1.55
1.55
1.55
1.55
1.55
1.55
1.55
1.55
1.55
1.55
1.55
1.55
1.55
1.55
1.55
1.55
1.55
1.55
1.55
1.55
1.55
1.55
1.55
1.55
1.55
1.55
1.55
1.55
1.55
1.55
1.55
1.55
1.55
1.55
1.55
1.55
1.55
1.55
1.55
1.55
1.55
1.55
1.55
1.55
1.55
1.55
1.55
1.55
1.55
1.55
1.55
1.55
1.55
1.55
1.55
1.55
1.55
1.55
1.55
1.55
1.55
1.55
1.55
1.55
1.55
1.55
1.55
1.55
1.55
1.55
1.55
1.55
1.55
1.55
1.55
1.55
1.55
1.55
1.55
VECTORS vectors float
0.3125 0 0
0.3125 0 0
0.3125 0 0
0.3125 0 0
0.3125 0 0
0.3125 0 0
0.3125 0 0
0.3125 0 0
0.3125 0 0
0.3125 0 0
0.3125 0 0
0.3125 0 0
0.3125 0 0
0.3125 0 0
0.3125 0 0
0.3125 0 0
0.3125 0 0
0.3125 0 0
0.3125 0 0
0.3125 0 0
0.3125 0 0
0.3125 0 0
0.3125 0 0
0.3125 0 0
0.3125 0 0
0.3125 0 0
0.3125 0 0
0.3125 0 0
0.3125 0 0
0.3125 0 0
0.3125 0 0
0.3125 0 0
0.3125 0 0
0.3125 0 0
0.3125 0 0
0.3125 0 0
0.3125 0 0
0.3125 0 0
0.3125 0 0
0.3125 0 0
0.3125 0 0
0.3125 0 0
0.3125 0 0
0.3125 0 0
0.3125 0 0
0.3125 0 0
0.3125 0 0
0.3125 0 0
0.3125 0 0
0.3125 0 0
0.3125 0 0
0.3125 0 0
0.3125 0 0
0.3125 0 0
0.3125 0 0
0.3125 0 0
0.3125 0 0
0.3125 0 0
0.3125 0 0
0.3125 0 0
0.3125 0 0
0.3125 0 0
0.3125 0 0
0.3125 0 0
0.3125 0 0
0.3125 0 0
0.3125 0 0
0.3125 0 0
0.3125 0 0
0.3125 0 0
0.3125 0 0
0.3125 0 0
0.3125 0 0
0.3125 0 0
0.3125 0 0
0.3125 0 0
0.3125 0 0
0.3125 0 0
0.3125 0 0
0.3125 0 0
0.3125 0 0
0 0 0
0 0 0
0 0 0
0 0 0
0 0 0
0 0 0
0 0 0
0 0 0
0 0 0
0 0 0
0 0 0
0 0 0
0 0 0
0 0 0
0 0 0
0 0 0
0 0 0
0 0 0
0 0 0
0 0 0
0 0 0
0 0 0
0 0 0
0 0 0
0 0 0
0 0 0
0 0 0
0 0 0
0 0 0
0 0 0
0 0 0
0 0 0
0 0 0
0 0 0
0 0 0
0 0 0
0 0 0
0 0 0
0 0 0
0 0 0
0 0 0
0 0 0
0 0 0
0 0 0
0 0 0
0 0 0
0 0 0
0 0 0
0 0 0
0 0 0
0 0 0
0 0 0
0 0 0
0 0 0
0 0 0
0 0 0
0 0 0
0 0 0
0 0 0
0 0 0
0 0 0
0 0 0
0 0 0
0 0 0
0 0 0
0 0 0
0 0 0
0 0 0
0 0 0
0 0 0
0 0 0
0 0 0
0 0 0
0 0 0
0 0 0
0 0 0
0 0 0
0 0 0
0 0 0
0 0 0
0 0 0
0 0 0
0 0 0
0 0 0
0 0 0
0 0 0
0 0 0
