Compiler and run-time data
===========================================================================
RASPA 1.8-0
Compiled as a 64-bits application
Compiler: gcc 4.2.1 (Based on Apple Inc. build 5658) (LLVM build 2336.11.00)
Compile Date = Apr 16 2013, Compile Time = 14:47:55

Tue Apr 16 15:07:34 2013
Simulation started on Tuesday, April 16.
The start time was 03:07 PM.

Cpu data:    x86_64
Cpu Model:   MacPro5,1
Host name:   server.darkwing.nl
OS release:  12.3.0
OS type:     Darwin
OS version:  12D78


Simulation
===========================================================================
Dimensions: 3
Random number seed: 1366117652
RASPA directory set to: /Users/dubbelda/RASPA/simulations/
String appended to output-files: 
Number of cycles: 1
Number of initializing cycles: 0
Number of equilibration cycles: 0
Print every: 1
Triclinic boundary condition applied
Timestep: 0.000500
Initialization Ensemble: NVT (constant number of particles N, constant volume V, constant average temperature T)
Production run ensemble: NVT (constant number of particles N, constant volume V, constant average temperature T)
	Degrees of freedom:                        432
	Translational Degrees of freedom:          432
	Rotational Degrees of freedom:             0
	Degrees of freedom Framework:              432


Mutual consistent basic set of units:
======================================
Unit of temperature: Kelvin
Unit of length:      1e-10 [m]
Unit of time:        1e-12 [s]
Unit of mass:        1.66054e-27 [kg]
Unit of charge:      1.60218e-19 [C/particle]

Derived units and their conversion factors:
===========================================
Unit of energy:              1.66054e-23 [J]
Unit of force:               1.66054e-13 [N]
Unit of pressure:            1.66054e+07 [Pa]
Unit of velocity:            100 [m/s]
Unit of acceleration:        1e-08 [m^2/s]
Unit of diffusion:           1e-08 [m^2/s]
Unit of dipole moment:       1.60218e-29 [C.m]
Unit of electric potential:  0.000103643 [V]
Unit of electric field:      1.03643e+06 [V]
Unit of polarizability:      1.54587e-35 [-]
Unit of Coulomb potential:   167101.0800066561  [K]
Unit of dielectric constant: 0.0000154587       [s^2 C^2/(kg m^3)]
Unit of wave vectors:        5.3088374589       [cm^1]
Boltzmann constant:          0.8314464919       [-]

Internal conversion factors:
===========================================
Energy to Kelvin:                                    1.2027242847
FH correction factor                                 2.0211930949
Heat capacity conversion factor:                    10.0000088723
From Debye to internal units:                        4.8032067991
Isothermal compressibility conversion factor:        0.0000000602

Energy conversion factors:
===========================================
From mdyne/A to kcal/mol/A^2:           143.933
From mdyne/A to kj/mol/A^2:             602.214
From mdyne/A to K/A^2:                  72429.7
From mdyne A/rad^2 to kcal/mol/deg^2:   0.0438444


Properties computed
===========================================================================
Movies: yes
	Movie snapshots are appended to file every 1 cycles
Radial Distribution Function: no
Number of molecules GCMC histogram: no
Histogram of the molecule positions: no
Free energy profiles: no
Pore Size Distribution Function: no
End-to-end distance: no
Histogram of the energy of the system: no
Compute thermodynamic factors: no
Framework spacing histograms: no
Residence times histograms: no
Distance histograms: no
Bend Angle histograms: no
Dihedral angle histograms: no
Angle between planes histograms: no
Molecule properties: no
Infra-red spectra: no
Mean-squared displacement using modified order-N algorithm: no
Velocity-autocorrelation function modified order-N algorithm: no
Rotational velocity-autocorrelation function modified order-N algorithm: no
Molecular orientation-autocorrelation function modified order-N algorithm: no
Mean-squared displacement (conventional algorithm): no
Velocity-autocorrelation function (conventional algorithm): no
3D density grid for adsorbates: no
Compute cation an/or adsorption sites: no
dcTST snapshots: no
Compute pressure and stress: no


VTK
===========================================================================
VTK fractional-range position framework atoms: [-0.001000,1.001000] [-0.001000,1.001000] [-0.001000,1.001000]
VTK fractional-range position framework bonds: [-0.151000,1.151000] [-0.151000,1.151000] [-0.151000,1.151000]
VTK fractional-range com-position adsorbate molecules: [-0.101000,1.101000] [-0.101000,1.101000] [-0.101000,1.101000]
VTK fractional-range com-position cation molecules: [-0.101000,1.101000] [-0.101000,1.101000] [-0.101000,1.101000]
	3D free energy grid made for the full simulation-cell


Thermo/Baro-stat NHC parameters
===========================================================================
External temperature: 300.000000 [K]
Beta: 0.004009 [energy unit]
External Pressure: 0.000000 [Pa]


Thermostat chain-length: 3
Timescale parameter for thermostat: 0.150000 [ps]
Barostat chain-length:   3
Timescale parameter for barostat:   0.150000 [ps]

Number of Yoshida-Suzuki decomposition steps: 5
Number of respa steps: 5


Method and settings for electrostatics
===============================================================================
Dielectric constant of the medium : 1.000000
Charge from charge-equilibration: no
Ewald summation is used (exact solution of a periodic system)
Relative precision                : 1e-10
Alpha convergence parameter       : 0.363526
kvec (x,y,z)                      : 8 8 8


CFC-RXMC parameters
===========================================================================
Number of reactions: 0


Rattle parameters
===========================================================================
Distance constraint type: r^2-r^2_0
Bend angle constraint type: theta-theta_0
Dihedral angle constraint type: phi-phi_0
Inversion-bend angle constraint type: chi-chi_0
Out-of-plane distance constraint type: r-r_0


Spectra parameters
===========================================================================
Compute normal modes: no


Minimization parameters
===========================================================================
Generalized coordinates are: Cartesian center-of-mass, elements of the orientational matrix p1,p2,p3 and strain
Potential derivatives are evaluated: analytically
Translation of the system is removed from the generalized Hessian: no
Rotation of the system is removed from the generalized Hessian: no
Maximum step-length: 0.3
Convergence factor: 1
Maximum number of minimization steps: 10000
Use gradients in the line-minimizations: yes
RMS gradient tolerance: 1e-06
Maximum gradient tolerance: 1e-06

Distance constraints: 0
Angle constraints: 0
Dihedral constraints: 0

Improper dihedral constraints: 0

Inversion-bend constraints: 0

Out-of-plane constraints: 0

Harmonic distance constraints: 0
Harmonic angle constraints: 0
Harmonic dihedral constraints: 0

Dihedral mid-point measurements: 0

Number of fixed framework atoms: 0  (active: 144)
fixed atom-list: 
Number of active framework atoms: 144  (fixed: 0)
active atom-list: 

Fixed adsorbate atoms:  
Fixed adsorbate groups (center-of-mass):  
Fixed adsorbate groups (orientation):  

Fixed cation atoms:  
Fixed cation groups (center-of-mass):  
Fixed cation groups (orientation):  


dcTST parameters
===========================================================================
Free energy profiles computed: no
Free energy profiles written every 5000 cycles
Free energy mapping: mapped to a,b,c-coordinates
BarrierPosition:       0.0000000000       0.0000000000       0.0000000000
BarrierNormal:         0.0000000000       0.0000000000       0.0000000000
Start with a molecule on top of the barrier: no
Maximum distance to barrier (e.g. distance to minumum free energy):       0.0000000000 [A]
Maximum trajectory time:      10.0000000000 [ps]
Each configuration is used with 5 different initial velocities


Cbmc parameters
===========================================================================
Biasing method: using only the VDW part
Number of trial positions:                             10
Number of trial positions coupled Torsion-selection:   100
Number of trial position for the first bead:           10
Number of trial moves per open bead:                   150
Target acceptance ratio small-mc scheme:               0.400000
Energy overlap criteria:                               100000
Minimal Rosenbluth factor:                             1e-150


Pseudo atoms: 16
===========================================================================
Pseudo Atom[   0] Name UNIT     Oxidation: +0       Element: H    pdb-name: H    Scat. Types:   1   1 Mass=1.000000000  B-factor:1.000   
                 Charge=1.000000000          Polarization=0.000000000  [A^3] (considered a charged atom and no polarization)  Interactions: yes
                 Anisotropic factor:    0.000 [-] (Relative), Radius:    1.000 [A], Framework-atom:  no
Pseudo Atom[   1] Name O        Oxidation: +0       Element: O    pdb-name: O    Scat. Types:   9   8 Mass=15.999400000 B-factor:1.000   
                 Charge=-1.025000000         Polarization=0.000000000  [A^3] (considered a charged atom and no polarization)  Interactions: yes
                 Anisotropic factor:    0.000 [-] (Relative), Radius:    0.640 [A], Framework-atom: yes (charge from pseudo-atoms file)
Pseudo Atom[   2] Name Oa       Oxidation: +0       Element: O    pdb-name: O    Scat. Types:   9   8 Mass=15.999400000 B-factor:1.000   
                 Charge=-1.025000000         Polarization=0.000000000  [A^3] (considered a charged atom and no polarization)  Interactions:  no
                 Anisotropic factor:    0.000 [-] (Relative), Radius:    0.640 [A], Framework-atom:  no
Pseudo Atom[   3] Name Si       Oxidation: +0       Element: Si   pdb-name: Si   Scat. Types:  15  14 Mass=28.085500000 B-factor:1.000   
                 Charge=2.050000000          Polarization=0.000000000  [A^3] (considered a charged atom and no polarization)  Interactions: yes
                 Anisotropic factor:    0.000 [-] (Relative), Radius:    1.140 [A], Framework-atom: yes (charge from pseudo-atoms file)
Pseudo Atom[   4] Name Al       Oxidation: +0       Element: Si   pdb-name: Si   Scat. Types:  15  14 Mass=28.085500000 B-factor:1.000   
                 Charge=2.050000000          Polarization=0.000000000  [A^3] (considered a charged atom and no polarization)  Interactions:  no
                 Anisotropic factor:    0.000 [-] (Relative), Radius:    1.140 [A], Framework-atom:  no
Pseudo Atom[   5] Name Ar       Oxidation: +0       Element: Ar   pdb-name: Ar   Scat. Types:  19  18 Mass=39.948000000 B-factor:1.000   
                 Charge=0.000000000          Polarization=0.000000000  [A^3] (considered a chargeless atom and no polarization)  Interactions: yes
                 Anisotropic factor:    0.000 [-] (Relative), Radius:    1.000 [A], Framework-atom:  no
Pseudo Atom[   6] Name CH4_sp3  Oxidation: +0       Element: C    pdb-name: C    Scat. Types:   7   6 Mass=16.042460000 B-factor:1.000   
                 Charge=0.000000000          Polarization=0.000000000  [A^3] (considered a chargeless atom and no polarization)  Interactions: yes
                 Anisotropic factor:    0.000 [-] (Relative), Radius:    1.000 [A], Framework-atom:  no
Pseudo Atom[   7] Name CH3_sp3  Oxidation: +0       Element: C    pdb-name: C    Scat. Types:   7   6 Mass=15.034520000 B-factor:1.000   
                 Charge=0.000000000          Polarization=0.000000000  [A^3] (considered a chargeless atom and no polarization)  Interactions: yes
                 Anisotropic factor:    0.000 [-] (Relative), Radius:    1.000 [A], Framework-atom:  no
Pseudo Atom[   8] Name CH2_sp3  Oxidation: +0       Element: C    pdb-name: C    Scat. Types:   7   6 Mass=14.026580000 B-factor:1.000   
                 Charge=0.000000000          Polarization=0.000000000  [A^3] (considered a chargeless atom and no polarization)  Interactions: yes
                 Anisotropic factor:    0.000 [-] (Relative), Radius:    1.000 [A], Framework-atom:  no
Pseudo Atom[   9] Name CH_sp3   Oxidation: +0       Element: C    pdb-name: C    Scat. Types:   7   6 Mass=13.018640000 B-factor:1.000   
                 Charge=0.000000000          Polarization=0.000000000  [A^3] (considered a chargeless atom and no polarization)  Interactions: yes
                 Anisotropic factor:    0.000 [-] (Relative), Radius:    1.000 [A], Framework-atom:  no
Pseudo Atom[  10] Name C_sp3    Oxidation: +0       Element: C    pdb-name: C    Scat. Types:   7   6 Mass=12.000000000 B-factor:1.000   
                 Charge=0.000000000          Polarization=0.000000000  [A^3] (considered a chargeless atom and no polarization)  Interactions:  no
                 Anisotropic factor:    0.000 [-] (Relative), Radius:    1.000 [A], Framework-atom:  no
Pseudo Atom[  11] Name C_co2    Oxidation: +0       Element: C    pdb-name: C    Scat. Types:   7   6 Mass=12.000000000 B-factor:1.000   
                 Charge=0.700000000          Polarization=0.000000000  [A^3] (considered a charged atom and no polarization)  Interactions: yes
                 Anisotropic factor:    0.000 [-] (Relative), Radius:    0.720 [A], Framework-atom:  no
Pseudo Atom[  12] Name O_co2    Oxidation: +0       Element: O    pdb-name: O    Scat. Types:   9   8 Mass=15.999400000 B-factor:1.000   
                 Charge=-0.350000000         Polarization=0.000000000  [A^3] (considered a charged atom and no polarization)  Interactions: yes
                 Anisotropic factor:    0.000 [-] (Relative), Radius:    0.680 [A], Framework-atom:  no
Pseudo Atom[  13] Name Ow       Oxidation: +0       Element: O    pdb-name: O    Scat. Types:   9   8 Mass=15.999400000 B-factor:1.000   
                 Charge=0.000000000          Polarization=0.000000000  [A^3] (considered a chargeless atom and no polarization)  Interactions: yes
                 Anisotropic factor:    0.000 [-] (Relative), Radius:    0.500 [A], Framework-atom:  no
Pseudo Atom[  14] Name Hw       Oxidation: +0       Element: H    pdb-name: H    Scat. Types:   1   1 Mass=1.008000000  B-factor:1.000   
                 Charge=0.241000000          Polarization=0.000000000  [A^3] (considered a charged atom and no polarization)  Interactions:  no
                 Anisotropic factor:    0.000 [-] (Relative), Radius:    1.000 [A], Framework-atom:  no
Pseudo Atom[  15] Name Lw       Oxidation: +0       Element: -    pdb-name: L    Scat. Types:   0   3 Mass=0.000000000  B-factor:1.000   
                 Charge=-0.241000000         Polarization=0.000000000  [A^3] (considered a charged atom and no polarization)  Interactions:  no
                 Anisotropic factor:    0.000 [-] (Relative), Radius:    1.000 [A], Framework-atom:  no


Forcefield: Nicholas
===========================================================================
CutOff VDW : 12.000000 (144.000000)
CutOff VDW switching on: 10.800000 (116.640000)
CutOff charge-charge : 12.000000 (144.000000)
CutOff charge-charge switching on: 7.800000 (60.840000)
CutOff charge-bonddipole : 12.000000 (144.000000)
CutOff charge-bondipole switching on: 8.400000 (70.560000)
CutOff bonddipole-bonddipole : 12.000000 (144.000000)
CutOff bonddipole-bondipole switching on: 9.000000 (81.000000)
Polarization is neglected
All potentials are shifted to zero at the Cutoff

General mixing rule: Lorentz-Berthelot mixing rules are used FIRST for cross terms
0 cross terms are overwritten using the individual mixing rules from the file 'force_field_mixing_rules.def'
and then 13 terms are overwritten using the specific interactions from the file 'force_field.def'

The force field and all the interactions:
   UNIT -    UNIT [LENNARD_JONES] p_0/k_B:   1.00000 [K], p_1: 1.00000 [A], shift/k_B:  -0.00000134 [K], tailcorrection: no
      O -       O [LENNARD_JONES] p_0/k_B:  29.43383 [K], p_1: 3.06222 [A], shift/k_B:  -0.03250255 [K], tailcorrection: no
      O -      Si [LENNARD_JONES] p_0/k_B:  49.05711 [K], p_1: 3.48335 [A], shift/k_B:  -0.11732606 [K], tailcorrection: no
      O -      Ar [LENNARD_JONES] p_0/k_B: 107.70000 [K], p_1: 3.15000 [A], shift/k_B:  -0.14089949 [K], tailcorrection: no
      O - CH4_sp3 [LENNARD_JONES] p_0/k_B: 115.00000 [K], p_1: 3.47000 [A], shift/k_B:  -0.26877769 [K], tailcorrection: no
      O - CH3_sp3 [LENNARD_JONES] p_0/k_B:  93.00000 [K], p_1: 3.48000 [A], shift/k_B:  -0.22114266 [K], tailcorrection: no
      O - CH2_sp3 [LENNARD_JONES] p_0/k_B:  60.50000 [K], p_1: 3.58000 [A], shift/k_B:  -0.17049818 [K], tailcorrection: no
      O -  CH_sp3 [LENNARD_JONES] p_0/k_B:  40.00000 [K], p_1: 3.92000 [A], shift/k_B:  -0.19418731 [K], tailcorrection: no
      O -   C_co2 [LENNARD_JONES] p_0/k_B:  50.20000 [K], p_1: 2.78150 [A], shift/k_B:  -0.03113747 [K], tailcorrection: no
      O -   O_co2 [LENNARD_JONES] p_0/k_B:  84.93000 [K], p_1: 2.91950 [A], shift/k_B:  -0.07043596 [K], tailcorrection: no
      O -      Ow [LENNARD_JONES] p_0/k_B:  91.50000 [K], p_1: 3.04850 [A], shift/k_B:  -0.09835446 [K], tailcorrection: no
     Si -      Si [LENNARD_JONES] p_0/k_B:  81.76308 [K], p_1: 3.96239 [A], shift/k_B:  -0.42335835 [K], tailcorrection: no
     Si -      Ow [LENNARD_JONES] p_0/k_B:  85.63950 [K], p_1: 3.52900 [A], shift/k_B:  -0.22144994 [K], tailcorrection: no
     Ar -      Ar [LENNARD_JONES] p_0/k_B: 124.07000 [K], p_1: 3.38000 [A], shift/k_B:  -0.24769804 [K], tailcorrection: no
     Ar - CH4_sp3 [LENNARD_JONES] p_0/k_B: 140.23229 [K], p_1: 3.55000 [A], shift/k_B:  -0.37575039 [K], tailcorrection: no
     Ar - CH3_sp3 [LENNARD_JONES] p_0/k_B: 115.75647 [K], p_1: 3.57000 [A], shift/k_B:  -0.32079374 [K], tailcorrection: no
     Ar - CH2_sp3 [LENNARD_JONES] p_0/k_B:  83.35418 [K], p_1: 3.67000 [A], shift/k_B:  -0.27260937 [K], tailcorrection: no
     Ar -  CH_sp3 [LENNARD_JONES] p_0/k_B:  45.92592 [K], p_1: 4.02500 [A], shift/k_B:  -0.26122023 [K], tailcorrection: no
     Ar -   C_co2 [LENNARD_JONES] p_0/k_B:  57.87823 [K], p_1: 3.09000 [A], shift/k_B:  -0.06747021 [K], tailcorrection: no
     Ar -   O_co2 [LENNARD_JONES] p_0/k_B:  99.00268 [K], p_1: 3.21500 [A], shift/k_B:  -0.14640121 [K], tailcorrection: no
     Ar -      Ow [LENNARD_JONES] p_0/k_B: 105.38620 [K], p_1: 3.23850 [A], shift/k_B:  -0.16279904 [K], tailcorrection: no
CH4_sp3 - CH4_sp3 [LENNARD_JONES] p_0/k_B: 158.50000 [K], p_1: 3.72000 [A], shift/k_B:  -0.56217796 [K], tailcorrection: no
CH4_sp3 - CH3_sp3 [LENNARD_JONES] p_0/k_B: 130.83577 [K], p_1: 3.74000 [A], shift/k_B:  -0.47921501 [K], tailcorrection: no
CH4_sp3 - CH2_sp3 [LENNARD_JONES] p_0/k_B:  94.21253 [K], p_1: 3.84000 [A], shift/k_B:  -0.40420524 [K], tailcorrection: no
CH4_sp3 -  CH_sp3 [LENNARD_JONES] p_0/k_B:  51.90857 [K], p_1: 4.19500 [A], shift/k_B:  -0.37827707 [K], tailcorrection: no
CH4_sp3 -   C_co2 [LENNARD_JONES] p_0/k_B:  65.41789 [K], p_1: 3.26000 [A], shift/k_B:  -0.10514776 [K], tailcorrection: no
CH4_sp3 -   O_co2 [LENNARD_JONES] p_0/k_B: 111.89951 [K], p_1: 3.38500 [A], shift/k_B:  -0.22538960 [K], tailcorrection: no
CH4_sp3 -      Ow [LENNARD_JONES] p_0/k_B: 119.11459 [K], p_1: 3.40850 [A], shift/k_B:  -0.25008586 [K], tailcorrection: no
CH3_sp3 - CH3_sp3 [LENNARD_JONES] p_0/k_B: 108.00000 [K], p_1: 3.76000 [A], shift/k_B:  -0.40842485 [K], tailcorrection: no
CH3_sp3 - CH2_sp3 [LENNARD_JONES] p_0/k_B:  77.76889 [K], p_1: 3.86000 [A], shift/k_B:  -0.34420794 [K], tailcorrection: no
CH3_sp3 -  CH_sp3 [LENNARD_JONES] p_0/k_B:  42.84857 [K], p_1: 4.21500 [A], shift/k_B:  -0.32127575 [K], tailcorrection: no
CH3_sp3 -   C_co2 [LENNARD_JONES] p_0/k_B:  54.00000 [K], p_1: 3.28000 [A], shift/k_B:  -0.09003849 [K], tailcorrection: no
CH3_sp3 -   O_co2 [LENNARD_JONES] p_0/k_B:  92.36883 [K], p_1: 3.40500 [A], shift/k_B:  -0.19274091 [K], tailcorrection: no
CH3_sp3 -      Ow [LENNARD_JONES] p_0/k_B:  98.32461 [K], p_1: 3.42850 [A], shift/k_B:  -0.21380771 [K], tailcorrection: no
CH2_sp3 - CH2_sp3 [LENNARD_JONES] p_0/k_B:  56.00000 [K], p_1: 3.96000 [A], shift/k_B:  -0.28891522 [K], tailcorrection: no
CH2_sp3 -  CH_sp3 [LENNARD_JONES] p_0/k_B:  30.85450 [K], p_1: 4.31500 [A], shift/k_B:  -0.26621710 [K], tailcorrection: no
CH2_sp3 -   C_co2 [LENNARD_JONES] p_0/k_B:  38.88444 [K], p_1: 3.38000 [A], shift/k_B:  -0.07763038 [K], tailcorrection: no
CH2_sp3 -   O_co2 [LENNARD_JONES] p_0/k_B:  66.51316 [K], p_1: 3.50500 [A], shift/k_B:  -0.16509673 [K], tailcorrection: no
CH2_sp3 -      Ow [LENNARD_JONES] p_0/k_B:  70.80181 [K], p_1: 3.52850 [A], shift/k_B:  -0.18292658 [K], tailcorrection: no
 CH_sp3 -  CH_sp3 [LENNARD_JONES] p_0/k_B:  17.00000 [K], p_1: 4.67000 [A], shift/k_B:  -0.23540268 [K], tailcorrection: no
 CH_sp3 -   C_co2 [LENNARD_JONES] p_0/k_B:  21.42429 [K], p_1: 3.73500 [A], shift/k_B:  -0.07784441 [K], tailcorrection: no
 CH_sp3 -   O_co2 [LENNARD_JONES] p_0/k_B:  36.64696 [K], p_1: 3.86000 [A], shift/k_B:  -0.16220080 [K], tailcorrection: no
 CH_sp3 -      Ow [LENNARD_JONES] p_0/k_B:  39.00990 [K], p_1: 3.88350 [A], shift/k_B:  -0.17905562 [K], tailcorrection: no
  C_co2 -   C_co2 [LENNARD_JONES] p_0/k_B:  27.00000 [K], p_1: 2.80000 [A], shift/k_B:  -0.01742667 [K], tailcorrection: no
  C_co2 -   O_co2 [LENNARD_JONES] p_0/k_B:  46.18441 [K], p_1: 2.92500 [A], shift/k_B:  -0.03873754 [K], tailcorrection: no
  C_co2 -      Ow [LENNARD_JONES] p_0/k_B:  49.16230 [K], p_1: 2.94850 [A], shift/k_B:  -0.04326293 [K], tailcorrection: no
  O_co2 -   O_co2 [LENNARD_JONES] p_0/k_B:  79.00000 [K], p_1: 3.05000 [A], shift/k_B:  -0.08516900 [K], tailcorrection: no
  O_co2 -      Ow [LENNARD_JONES] p_0/k_B:  84.09378 [K], p_1: 3.07350 [A], shift/k_B:  -0.09493210 [K], tailcorrection: no
     Ow -      Ow [LENNARD_JONES] p_0/k_B:  89.51600 [K], p_1: 3.09700 [A], shift/k_B:  -0.10577720 [K], tailcorrection: no


MoleculeDefinitions:
===========================================================================
No components defined in 'simulation.input'


Framework Status
===========================================================================
Lowenstein's rule obeyed by framework
	Framework is modelled as: flexible using the model of Nicholas
	==================================================================================

	Number of Bonds definitions: 1
	--------------------------------------------
	Bond interaction between [Si-O] using bond-type: HARMONIC_BOND (192 bonds)
	  args: 2   arg[0]=300724.776636 arg[1]=1.610000 

	Number of Urey-Bradley definitions: 1
	--------------------------------------------
	Urey-Bradley interaction between [Si-(O)-Si] using Urey-Bradley-type:HARMONIC_BOND (96 Urey-Bradleys)
	  args: 2   arg[0]=27488.737702 arg[1]=3.126100 

	Number of Bend definitions: 2
	--------------------------------------------
	Bend interaction between [O-Si-O] using bend-type: HARMONIC_COSINE_BEND (288 bends)
	  args: 2   arg[0]=69537.444166 arg[1]=109.500000 
	Bend interaction between [Si-O-Si] using bend-type: QUARTIC_BEND (96 bends)
	  args: 4   arg[0]=5462.505569 arg[1]=149.500000 arg[2]=-17157.805511 arg[3]=13351.672598 

	Number of Bend/Torsion cross-term definitions: 1
	--------------------------------------------
	Bend/Torsion cross-term interaction between [Si-O-Si-O] using bend/torsion-type:SMOOTHED_THREE_COSINE_DIHEDRAL (576 bend-torsions)
	  args: 3   arg[0]=0.000000 arg[1]=0.000000 arg[2]=-352.419700 


	Number of core/shells:                           0
	Number of bonds:                                 192
	Number of bond-dipoles:                          0
	Number of bends:                                 384
	Number of Urey-Bradleys:                         96
	Number of Inversion bends:                       0
	Number of Torsions:                              0
	Number of Improper Torsions:                     0
	Number of Out-of-planes:                         0
	Number of bond-bond cross terms:                 0
	Number of bond-bend cross terms:                 0
	Number of bend-bend cross terms:                 0
	Number of stretch-torsion cross terms:           0
	Number of bend-torsion cross terms:              576

	Number of charges:                               144
	Number of bonddipoles:                           0

	Number of Intra VDW:                             154752
	Number of Intra Coulomb charge-charge:           154752
	Number of Intra Coulomb charge-bonddipole:       0
	Number of Intra Coulomb bonddipoles:             0
	Number of excluded Intra VDW:                    696
	Number of excluded intra charge-charge:          576
	Number of excluded intra charge-bonddipole:      0
	Number of excluded intra bonddipole-bonddipole:  0


	Number of 1-2 intra-framework pairs: 192
	Number of 1-3 intra-framework pairs: 384
	Number of 1-4 intra-framework pairs: 768
	Number of 1-2,1-3 intra-framework pairs: 576
	Number of 1-2,1-3,1-4 intra-framework pairs: 1152
	Bond interactions are removed (excluded from VDW and Coulomb interactions)
	Bend interactions are removed (excluded from VDW and Coulomb interactions)
	Torsion interactions are *included* in the VDW and Coulomb interactions
	Remove12NeighboursFromVDWInteraction no
	Remove13NeighboursFromVDWInteraction no
	Remove14NeighboursFromVDWInteraction no
	Remove12NeighboursFromChargeChargeInteraction no
	Remove13NeighboursFromChargeChargeInteraction no
	Remove14NeighboursFromChargeChargeInteraction no
	Remove11NeighboursFromChargeBondDipoleInteraction no
	Remove12NeighboursFromChargeBondDipoleInteraction no
	Remove13NeighboursFromChargeBondDipoleInteraction no
	Remove14NeighboursFromChargeBondDipoleInteraction no
	Remove12NeighboursFromBondDipoleBondDipoleInteraction no
	Remove13NeighboursFromBondDipoleBondDipoleInteraction no
	Remove14NeighboursFromBondDipoleBondDipoleInteraction no
	InternalFrameworkLennardJonesInteractions yes


System Properties
===========================================================================
Unit cell size: 15.031000 15.031000 15.031000
Cell angles (radians)  alpha: 1.570796 beta: 1.570796 gamma: 1.570796
Cell angles (degrees)  alpha: 90.000000 beta: 90.000000 gamma: 90.000000
Number of unitcells [a]: 1
Number of unitcells [b]: 1
Number of unitcells [c]: 1

TRICLINIC Boundary conditions: alpha!=90 or beta!=90 or gamma!=90

Cartesian axis A is collinear with crystallographic axis a
Cartesian axis B is collinear with (axb)xA
Cartesian axis C is collinear with (axb)

lengths of cell vectors:
 15.03100  15.03100  15.03100
cosines of cell angles:
  0.00000   0.00000   0.00000
perpendicular cell widths:
 15.03100  15.03100  15.03100
volume of the cell:  3395.968274791001 (A^3)

Orthogonalization matrix Box
Transforms fractional coordinates abc into orthonormal Cartesian coordinates xyz
Deorthogonalization matrix InverseBox
Transforms orthonormal Cartesian coordinates xyz into fractional coordinates xyz

Box[0]:
	   15.031000000000     0.000000000000     0.000000000000
	    0.000000000000    15.031000000000     0.000000000000
	    0.000000000000     0.000000000000    15.031000000000

Inverse box[0]:
	    0.066529173042    -0.000000000000    -0.000000000000
	    0.000000000000     0.066529173042    -0.000000000000
	    0.000000000000     0.000000000000     0.066529173042


Unitcell box[0]:
	   15.031000000000     0.000000000000     0.000000000000
	    0.000000000000    15.031000000000     0.000000000000
	    0.000000000000     0.000000000000    15.031000000000

Unitcell inverse box[0]:
	    0.066529173042    -0.000000000000    -0.000000000000
	    0.000000000000     0.066529173042    -0.000000000000
	    0.000000000000     0.000000000000     0.066529173042

lengths of cell vectors (inverse box):
  0.06653   0.06653   0.06653
cosines of cell angles (inverse box):
 -0.00000  -0.00000  -0.00000
perpendicular cell widths (inverse):
  0.06653   0.06653   0.06653
volume of the cell:  3395.968274791001 (A^3)

Number of Replica Cells: 2 2 2
Replica Box:
	   30.062000000000     0.000000000000     0.000000000000
	    0.000000000000    30.062000000000     0.000000000000
	    0.000000000000     0.000000000000    30.062000000000

Shift of the Replica cells:
	[cell:  0]     0.000000000000     0.000000000000     0.000000000000
	[cell:  1]     0.000000000000     0.000000000000    15.031000000000
	[cell:  2]     0.000000000000    15.031000000000     0.000000000000
	[cell:  3]     0.000000000000    15.031000000000    15.031000000000
	[cell:  4]    15.031000000000     0.000000000000     0.000000000000
	[cell:  5]    15.031000000000     0.000000000000    15.031000000000
	[cell:  6]    15.031000000000    15.031000000000     0.000000000000
	[cell:  7]    15.031000000000    15.031000000000    15.031000000000

Framework is simulated as 'flexible'
Number of framework atoms: 144
Number of framework atoms in the unit cell: 144
Framework Mass:  2884.046400000005 [g/mol]
Framework Density:  1410.222460676310 [kg/m^3]    0.7091079796874 [cm^3/g]
Helium void fraction:    0.00000000
Available pore volume:    0.00000000 [A^3]    0.00000000 [cm^3/g]
Conversion factor from molecule/unit cell -> kmol/m^3: 0.488974, kmol/m^3 accesible pore volume: inf

Number Of Frameworks (per system): 1
----------------------------------------------------------------------
Framework name: RHO
Citation:
	author name:        'L.B. McCusker and Ch. Baerlocher'
	title:              'The effect of dehydration upon the crystal structure of zeolite rho'
	journal abbrev.:    'J. Solid State Chem.'
	first page:         812
	last page:          822
	year:               1984
	special details:    'Proceedings of the 6th International Zeolite Conference, Reno 1983'
Space group: 229
	Identifier: 529
	short international Hermann-Mauguin symbol: I m -3 m
	long international Hermann-Mauguin symbol: I 4/m -3 2/m
	Hall symbol: -I 4 2 3
	Number of lattice translations: 2 [ (0,0,0) (0.5,0.5,0.5) ]
	acentric/centric: acentric
	chiral: yes
	enantiomorphic: no
	number of operators: 96
		'x,y,z'
		'-x,-y,z'
		'-x,y,-z'
		'x,-y,-z'
		'z,x,y'
		'z,-x,-y'
		'-z,-x,y'
		'-z,x,-y'
		'y,z,x'
		'-y,z,-x'
		'y,-z,-x'
		'-y,-z,x'
		'y,x,-z'
		'-y,-x,-z'
		'y,-x,z'
		'-y,x,z'
		'x,z,-y'
		'-x,z,y'
		'-x,-z,-y'
		'x,-z,y'
		'z,y,-x'
		'z,-y,x'
		'-z,y,x'
		'-z,-y,-x'
		'-x,-y,-z'
		'x,y,-z'
		'x,-y,z'
		'-x,y,z'
		'-z,-x,-y'
		'-z,x,y'
		'z,x,-y'
		'z,-x,y'
		'-y,-z,-x'
		'y,-z,x'
		'-y,z,x'
		'y,z,-x'
		'-y,-x,z'
		'y,x,z'
		'-y,x,-z'
		'y,-x,-z'
		'-x,-z,y'
		'x,-z,-y'
		'x,z,y'
		'-x,z,-y'
		'-z,-y,x'
		'-z,y,-x'
		'z,-y,-x'
		'z,y,x'
		'x+1/2,y+1/2,z+1/2'
		'-x+1/2,-y+1/2,z+1/2'
		'-x+1/2,y+1/2,-z+1/2'
		'x+1/2,-y+1/2,-z+1/2'
		'z+1/2,x+1/2,y+1/2'
		'z+1/2,-x+1/2,-y+1/2'
		'-z+1/2,-x+1/2,y+1/2'
		'-z+1/2,x+1/2,-y+1/2'
		'y+1/2,z+1/2,x+1/2'
		'-y+1/2,z+1/2,-x+1/2'
		'y+1/2,-z+1/2,-x+1/2'
		'-y+1/2,-z+1/2,x+1/2'
		'y+1/2,x+1/2,-z+1/2'
		'-y+1/2,-x+1/2,-z+1/2'
		'y+1/2,-x+1/2,z+1/2'
		'-y+1/2,x+1/2,z+1/2'
		'x+1/2,z+1/2,-y+1/2'
		'-x+1/2,z+1/2,y+1/2'
		'-x+1/2,-z+1/2,-y+1/2'
		'x+1/2,-z+1/2,y+1/2'
		'z+1/2,y+1/2,-x+1/2'
		'z+1/2,-y+1/2,x+1/2'
		'-z+1/2,y+1/2,x+1/2'
		'-z+1/2,-y+1/2,-x+1/2'
		'-x+1/2,-y+1/2,-z+1/2'
		'x+1/2,y+1/2,-z+1/2'
		'x+1/2,-y+1/2,z+1/2'
		'-x+1/2,y+1/2,z+1/2'
		'-z+1/2,-x+1/2,-y+1/2'
		'-z+1/2,x+1/2,y+1/2'
		'z+1/2,x+1/2,-y+1/2'
		'z+1/2,-x+1/2,y+1/2'
		'-y+1/2,-z+1/2,-x+1/2'
		'y+1/2,-z+1/2,x+1/2'
		'-y+1/2,z+1/2,x+1/2'
		'y+1/2,z+1/2,-x+1/2'
		'-y+1/2,-x+1/2,z+1/2'
		'y+1/2,x+1/2,z+1/2'
		'-y+1/2,x+1/2,-z+1/2'
		'y+1/2,-x+1/2,-z+1/2'
		'-x+1/2,-z+1/2,y+1/2'
		'x+1/2,-z+1/2,-y+1/2'
		'x+1/2,z+1/2,y+1/2'
		'-x+1/2,z+1/2,-y+1/2'
		'-z+1/2,-y+1/2,x+1/2'
		'-z+1/2,y+1/2,-x+1/2'
		'z+1/2,-y+1/2,-x+1/2'
		'z+1/2,y+1/2,x+1/2'
Framework is simulated as 'flexible'
Shift: 0.000000 0.000000 0.000000
Number of framework atoms: 144
Number of asymmetric atoms: 3
Number of free framework atoms: 144
Number of fixed framework atoms: 0
Number of framework atoms in the unit cell: 144
Framework Mass:  2884.046400000005 [g/mol]
Framework Density:  1410.222460676310 [kg/m^3]
Framework has net charge: 0.000000
         largest charge : 2.050000
         smallest charge: -1.025000


Current Atom Status
===========================================================================
Number of framework atoms        : 144
Number of cations molecules      : 0
Number of adsorbate molecules    : 0
Pseudo Atoms    0 [    UNIT]:    0 atoms
Pseudo Atoms    1 [       O]:   96 atoms
Pseudo Atoms    2 [      Oa]:    0 atoms
Pseudo Atoms    3 [      Si]:   48 atoms
Pseudo Atoms    4 [      Al]:    0 atoms
Pseudo Atoms    5 [      Ar]:    0 atoms
Pseudo Atoms    6 [ CH4_sp3]:    0 atoms
Pseudo Atoms    7 [ CH3_sp3]:    0 atoms
Pseudo Atoms    8 [ CH2_sp3]:    0 atoms
Pseudo Atoms    9 [  CH_sp3]:    0 atoms
Pseudo Atoms   10 [   C_sp3]:    0 atoms
Pseudo Atoms   11 [   C_co2]:    0 atoms
Pseudo Atoms   12 [   O_co2]:    0 atoms
Pseudo Atoms   13 [      Ow]:    0 atoms
Pseudo Atoms   14 [      Hw]:    0 atoms
Pseudo Atoms   15 [      Lw]:    0 atoms


Current (initial full energy) Energy Status
===========================================================================

Internal energy:
Host stretch energy:                                        88852.22359246
Host UreyBradley energy:                                      501.34625939
Host bend energy:                                          123140.62628826
Host inversion-bend energy:                                     0.00000000
Host torsion energy:                                            0.00000000
Host improper torsion energy:                                   0.00000000
Host out-of-plane energy:                                       0.00000000
Host stretch/stretch energy:                                    0.00000000
Host bend/bend energy:                                          0.00000000
Host stretch/bend energy:                                       0.00000000
Host stretch/torsion energy:                                    0.00000000
Host bend/torsion energy:                                  -91245.65569540

Adsorbate stretch energy:                                       0.00000000
Adsorbate UreyBradley energy:                                   0.00000000
Adsorbate bend energy:                                          0.00000000
Adsorbate inversion-bend energy:                                0.00000000
Adsorbate torsion energy:                                       0.00000000
Adsorbate improper torsion energy:                              0.00000000
Adsorbate out-of-plane energy:                                  0.00000000
Adsorbate stretch/stretch energy:                               0.00000000
Adsorbate bend/bend energy:                                     0.00000000
Adsorbate stretch/bend energy:                                  0.00000000
Adsorbate stretch/torsion energy:                               0.00000000
Adsorbate bend/torsion energy:                                  0.00000000
Adsorbate intra VDW energy:                                     0.00000000
Adsorbate intra charge-charge Coulomb energy:                   0.00000000
Adsorbate intra charge-bonddipole Coulomb energy:               0.00000000
Adsorbate intra bonddipole-bonddipole Coulomb energy:           0.00000000

Cation stretch energy:                                          0.00000000
Cation UreyBradley energy:                                      0.00000000
Cation bend energy:                                             0.00000000
Cation inversion-bend energy:                                   0.00000000
Cation torsion energy:                                          0.00000000
Cation improper torsion energy:                                 0.00000000
Cation out-of-plane energy:                                     0.00000000
Cation stretch/stretch energy:                                  0.00000000
Cation bend/bend energy:                                        0.00000000
Cation stretch/bend energy:                                     0.00000000
Cation stretch/torsion energy:                                  0.00000000
Cation bend/torsion energy:                                     0.00000000
Cation intra VDW energy:                                        0.00000000
Cation intra charge-charge Coulomb energy:                      0.00000000
Cation intra charge-bonddipole Coulomb energy:                  0.00000000
Cation intra bonddipole-bonddipole Coulomb energy:              0.00000000

Host/Host energy:                                     -22028111.36961807
	Host/Host VDW energy:                                    -63739.25834059
	Host/Host Coulomb energy:                             -21964372.11127747
	Host/Host charge-charge Real energy:                   -1455398.84695284
	Host/Host charge-charge Fourier energy:               -20508973.26432463
	Host/Host charge-bonddipole Real energy:                      0.00000000
	Host/Host charge-bonddipole Fourier energy:                   0.00000000
	Host/Host bondipole-bonddipole Real energy:                   0.00000000
	Host/Host bondipole-bonddipole Fourier energy:                0.00000000

Host/Adsorbate energy:                                        0.00000000
	Host/Adsorbate VDW energy:                                    0.00000000
	Host/Adsorbate Coulomb energy:                                0.00000000
	Host/Adsorbate charge-charge Real energy:                     0.00000000
	Host/Adsorbate charge-charge Fourier energy:                  0.00000000
	Host/Adsorbate charge-bonddipole Real energy:                 0.00000000
	Host/Adsorbate charge-bonddipole Fourier energy:              0.00000000
	Host/Adsorbate bondipole-bonddipole Real energy:              0.00000000
	Host/Adsorbate bondipole-bonddipole Fourier energy:           0.00000000

Host/Cation energy:                                           0.00000000
	Host/Cation VDW energy:                                       0.00000000
	Host/Cation Coulomb energy:                                   0.00000000
	Host/Cation charge-charge Real energy:                        0.00000000
	Host/Cation charge-charge Fourier energy:                     0.00000000
	Host/Cation charge-bonddipole Real energy:                    0.00000000
	Host/Cation charge-bonddipole Fourier energy:                 0.00000000
	Host/Cation bondipole-bonddipole Real energy:                 0.00000000
	Host/Cation bondipole-bonddipole Fourier energy:              0.00000000

Adsorbate/Adsorbate energy:                                        0.00000000
	Adsorbate/Adsorbate VDW energy:                                    0.00000000
	Adsorbate/Adsorbate Coulomb energy:                                0.00000000
	Adsorbate/Adsorbate charge-charge Real energy:                     0.00000000
	Adsorbate/Adsorbate charge-charge Fourier energy:                  0.00000000
	Adsorbate/Adsorbate charge-bonddipole Real energy:                 0.00000000
	Adsorbate/Adsorbate charge-bonddipole Fourier energy:              0.00000000
	Adsorbate/Adsorbate bondipole-bonddipole Real energy:              0.00000000
	Adsorbate/Adsorbate bondipole-bonddipole Fourier energy:           0.00000000

Adsorbate/Cation energy:                                           0.00000000
	Adsorbate/Cation VDW energy:                                       0.00000000
	Adsorbate/Cation Coulomb energy:                                   0.00000000
	Adsorbate/Cation charge-charge Real energy:                        0.00000000
	Adsorbate/Cation charge-charge Fourier energy:                     0.00000000
	Adsorbate/Cation charge-bonddipole Real energy:                    0.00000000
	Adsorbate/Cation charge-bonddipole Fourier energy:                 0.00000000
	Adsorbate/Cation bondipole-bonddipole Real energy:                 0.00000000
	Adsorbate/Cation bondipole-bonddipole Fourier energy:              0.00000000

Cation/Cation energy:                                           0.00000000
	Cation/Cation VDW energy:                                       0.00000000
	Cation/Cation Coulomb energy:                                   0.00000000
	Cation/Cation charge-charge Real energy:                        0.00000000
	Cation/Cation charge-charge Fourier energy:                     0.00000000
	Cation/Cation charge-bonddipole Real energy:                    0.00000000
	Cation/Cation charge-bonddipole Fourier energy:                 0.00000000
	Cation/Cation bondipole-bonddipole Real energy:                 0.00000000
	Cation/Cation bondipole-bonddipole Fourier energy:              0.00000000

Polarization energy:
	Host polarization energy:                                     0.00000000
	Adsorbate polarization energy:                                0.00000000
	Cation polarization energy:                                   0.00000000
	Host back-polarization energy:                                     0.00000000
	Adsorbate back-polarization energy:                                0.00000000
	Cation back-polarization energy:                                   0.00000000

Tail-correction energy:                                       0.00000000

Distance constraints energy:                                  0.00000000
Angle constraints energy:                                     0.00000000
Dihedral constraints energy:                                  0.00000000
Inversion-bend constraints energy:                            0.00000000
Out-of-plane distance constraints energy:                     0.00000000
Exclusion constraints energy:                                 0.00000000

===================================================================
Total energy: -21906862.829173352569
	Total Van der Waals: -63739.258341
	Total Coulomb: -21964372.111277

	Total Polarization: 0.000000







+++++++++++++++++++++++++++++++++++++++++++++++++++++++++++++++++++++++++
Starting simulation
+++++++++++++++++++++++++++++++++++++++++++++++++++++++++++++++++++++++++

Total number of variables used in the minimization: 432
Number of cell-variables used in the minimization: 0
Total number of variables used for generalized coordinates in the minimization: 432
Total number of variables used for positions in the minimization: 432
Total number of variables used for orientation in the minimization: 0

Minimization initial volume:    3395.9682747910 [A^3]
Minimization initial energy: -21906862.8291732967 [K]
Minimization initial strain:       0.0000000000 [-]
Minimization initial box:      15.0310000000       0.0000000000       0.0000000000[-]
                                0.0000000000      15.0310000000       0.0000000000[-]
                                0.0000000000       0.0000000000      15.0310000000[-]

Beginning Baker minimization:
-----------------------------
Computing generalized Hessian matrix
Computing eigenvalues and vectors
Shifting parameter: -303194.5556973947 Lowest eigenvalue:    9388.8851941211
Iteration: 0 Energy: -21906862.8291732967 Volume:    3395.9682747910 RMS gradient: 909.144  Max gradient: 40004.4 Number of negative eigenvalues: 0 Number of zero eigenvalues: 3
      Box:      15.0310000000       0.0000000000       0.0000000000     Strain derivative: 7442758.5735733761       0.0000000010       0.0000000011
                 0.0000000000      15.0310000000       0.0000000000                              0.0000000010 7442758.5735733705       0.0000000004
                 0.0000000000       0.0000000000      15.0310000000                              0.0000000011       0.0000000004 7442758.5735733425
      Lengths:      15.0310000000      15.0310000000      15.0310000000, Angles:      90.0000000000      90.0000000000      90.0000000000

Computing generalized Hessian matrix
Computing eigenvalues and vectors
Shifting parameter: -252106.8055654124 Lowest eigenvalue:    9087.7227989266
Iteration: 1 Energy: -22035600.8532293960 Volume:    3395.9682747910 RMS gradient: 771.849  Max gradient: 33497.2 Number of negative eigenvalues: 0 Number of zero eigenvalues: 3
      Box:      15.0310000000       0.0000000000       0.0000000000     Strain derivative: 7178736.8175546806      -0.0000004679       0.0000008966
                 0.0000000000      15.0310000000       0.0000000000                             -0.0000004679 7178736.8175511658       0.0000006528
                 0.0000000000       0.0000000000      15.0310000000                              0.0000008966       0.0000006528 7178736.8175539020
      Lengths:      15.0310000000      15.0310000000      15.0310000000, Angles:      90.0000000000      90.0000000000      90.0000000000

Computing generalized Hessian matrix
Computing eigenvalues and vectors
Shifting parameter: -205140.3468150142 Lowest eigenvalue:    8590.4420507114
Iteration: 2 Energy: -22144117.0744844563 Volume:    3395.9682747910 RMS gradient: 645.621  Max gradient: 27409.9 Number of negative eigenvalues: 0 Number of zero eigenvalues: 3
      Box:      15.0310000000       0.0000000000       0.0000000000     Strain derivative: 6930338.5630719438       0.0000011833       0.0000012269
                 0.0000000000      15.0310000000       0.0000000000                              0.0000011833 6930338.5630728202       0.0000007175
                 0.0000000000       0.0000000000      15.0310000000                              0.0000012268       0.0000007175 6930338.5630725566
      Lengths:      15.0310000000      15.0310000000      15.0310000000, Angles:      90.0000000000      90.0000000000      90.0000000000

Computing generalized Hessian matrix
Computing eigenvalues and vectors
Shifting parameter: -162145.5597123237 Lowest eigenvalue:    5163.1604741847
Iteration: 3 Energy: -22233958.7974579819 Volume:    3395.9682747910 RMS gradient: 529.362  Max gradient: 21747.5 Number of negative eigenvalues: 0 Number of zero eigenvalues: 3
      Box:      15.0310000000       0.0000000000       0.0000000000     Strain derivative: 6698152.7348090718       0.0000013572       0.0000009655
                 0.0000000000      15.0310000000       0.0000000000                              0.0000013572 6698152.7348094396       0.0000010808
                 0.0000000000       0.0000000000      15.0310000000                              0.0000009655       0.0000010808 6698152.7348127710
      Lengths:      15.0310000000      15.0310000000      15.0310000000, Angles:      90.0000000000      90.0000000000      90.0000000000

Computing generalized Hessian matrix
Computing eigenvalues and vectors
Shifting parameter: -123390.5306476650 Lowest eigenvalue:    1330.8144533401
Iteration: 4 Energy: -22306502.6847570539 Volume:    3395.9682747910 RMS gradient: 422.572  Max gradient: 16529.3 Number of negative eigenvalues: 0 Number of zero eigenvalues: 3
      Box:      15.0310000000       0.0000000000       0.0000000000     Strain derivative: 6483448.2517827339       0.0000011453       0.0000015992
                 0.0000000000      15.0310000000       0.0000000000                              0.0000011452 6483448.2517852327       0.0000025298
                 0.0000000000       0.0000000000      15.0310000000                              0.0000015992       0.0000025298 6483448.2517842045
      Lengths:      15.0310000000      15.0310000000      15.0310000000, Angles:      90.0000000000      90.0000000000      90.0000000000

Computing generalized Hessian matrix
Computing eigenvalues and vectors
Shifting parameter:  -89850.9003570971 Lowest eigenvalue:   -2469.5005944602
Iteration: 5 Energy: -22363055.4798498824 Volume:    3395.9682747910 RMS gradient: 325.873  Max gradient: 13719 Number of negative eigenvalues: 12 Number of zero eigenvalues: 3
      Box:      15.0310000000       0.0000000000       0.0000000000     Strain derivative: 6288910.1488772882      -0.0000021865       0.0000008486
                 0.0000000000      15.0310000000       0.0000000000                             -0.0000021865 6288910.1488785120       0.0000037121
                 0.0000000000       0.0000000000      15.0310000000                              0.0000008486       0.0000037122 6288910.1488792012
      Lengths:      15.0310000000      15.0310000000      15.0310000000, Angles:      90.0000000000      90.0000000000      90.0000000000

Computing generalized Hessian matrix
Computing eigenvalues and vectors
Shifting parameter:  -63463.8109044408 Lowest eigenvalue:   -5799.9883162280
Iteration: 6 Energy: -22405065.1319505870 Volume:    3395.9682747910 RMS gradient: 242.035  Max gradient: 10979.5 Number of negative eigenvalues: 12 Number of zero eigenvalues: 3
      Box:      15.0310000000       0.0000000000       0.0000000000     Strain derivative: 6120440.6113391025      -0.0000028776      -0.0000005437
                 0.0000000000      15.0310000000       0.0000000000                             -0.0000028777 6120440.6113361809       0.0000043138
                 0.0000000000       0.0000000000      15.0310000000                             -0.0000005437       0.0000043137 6120440.6113367351
      Lengths:      15.0310000000      15.0310000000      15.0310000000, Angles:      90.0000000000      90.0000000000      90.0000000000

Computing generalized Hessian matrix
Computing eigenvalues and vectors
Shifting parameter:  -45990.6464792381 Lowest eigenvalue:   -8124.1732126021
Iteration: 7 Energy: -22434657.8728630617 Volume:    3395.9682747910 RMS gradient: 176.36  Max gradient: 8567.37 Number of negative eigenvalues: 12 Number of zero eigenvalues: 3
      Box:      15.0310000000       0.0000000000       0.0000000000     Strain derivative: 5988206.8916539196       0.0000000657      -0.0000004842
                 0.0000000000      15.0310000000       0.0000000000                              0.0000000657 5988206.8916572127      -0.0000003233
                 0.0000000000       0.0000000000      15.0310000000                             -0.0000004842      -0.0000003233 5988206.8916554218
      Lengths:      15.0310000000      15.0310000000      15.0310000000, Angles:      90.0000000000      90.0000000000      90.0000000000

Computing generalized Hessian matrix
Computing eigenvalues and vectors
Shifting parameter:  -35890.4527713746 Lowest eigenvalue:   -9103.4731141268
Iteration: 8 Energy: -22455325.2452734597 Volume:    3395.9682747910 RMS gradient: 131.423  Max gradient: 6715.75 Number of negative eigenvalues: 12 Number of zero eigenvalues: 3
      Box:      15.0310000000       0.0000000000       0.0000000000     Strain derivative: 5898164.3205165332       0.0000040694      -0.0000010373
                 0.0000000000      15.0310000000       0.0000000000                              0.0000040694 5898164.3205201440      -0.0000009919
                 0.0000000000       0.0000000000      15.0310000000                             -0.0000010373      -0.0000009919 5898164.3205035683
      Lengths:      15.0310000000      15.0310000000      15.0310000000, Angles:      90.0000000000      90.0000000000      90.0000000000

Computing generalized Hessian matrix
Computing eigenvalues and vectors
Shifting parameter:  -29310.7534872111 Lowest eigenvalue:   -9516.6180912424
Iteration: 9 Energy: -22470822.4848582447 Volume:    3395.9682747910 RMS gradient: 101.892  Max gradient: 5353.04 Number of negative eigenvalues: 12 Number of zero eigenvalues: 3
      Box:      15.0310000000       0.0000000000       0.0000000000     Strain derivative: 5842519.8089204133       0.0000046758      -0.0000023594
                 0.0000000000      15.0310000000       0.0000000000                              0.0000046758 5842519.8089058800      -0.0000020273
                 0.0000000000       0.0000000000      15.0310000000                             -0.0000023594      -0.0000020273 5842519.8088960620
      Lengths:      15.0310000000      15.0310000000      15.0310000000, Angles:      90.0000000000      90.0000000000      90.0000000000

Computing generalized Hessian matrix
Computing eigenvalues and vectors
Shifting parameter:  -23752.3573998154 Lowest eigenvalue:   -9617.4978662115
Iteration: 10 Energy: -22483300.6212856807 Volume:    3395.9682747910 RMS gradient: 80.9646  Max gradient: 4292.85 Number of negative eigenvalues: 12 Number of zero eigenvalues: 3
      Box:      15.0310000000       0.0000000000       0.0000000000     Strain derivative: 5810582.4466318712      -0.0000008465      -0.0000047190
                 0.0000000000      15.0310000000       0.0000000000                             -0.0000008465 5810582.4466177672      -0.0000007602
                 0.0000000000       0.0000000000      15.0310000000                             -0.0000047190      -0.0000007602 5810582.4465967454
      Lengths:      15.0310000000      15.0310000000      15.0310000000, Angles:      90.0000000000      90.0000000000      90.0000000000

Computing generalized Hessian matrix
Computing eigenvalues and vectors
Shifting parameter:  -18185.7105392733 Lowest eigenvalue:   -9049.1580618954
Iteration: 11 Energy: -22493562.0064151213 Volume:    3395.9682747910 RMS gradient: 64.1137  Max gradient: 3396.24 Number of negative eigenvalues: 12 Number of zero eigenvalues: 3
      Box:      15.0310000000       0.0000000000       0.0000000000     Strain derivative: 5795751.1759575075      -0.0000062525      -0.0000014499
                 0.0000000000      15.0310000000       0.0000000000                             -0.0000062525 5795751.1759331077       0.0000046277
                 0.0000000000       0.0000000000      15.0310000000                             -0.0000014499       0.0000046277 5795751.1759316567
      Lengths:      15.0310000000      15.0310000000      15.0310000000, Angles:      90.0000000000      90.0000000000      90.0000000000

Computing generalized Hessian matrix
Computing eigenvalues and vectors
Shifting parameter:  -12326.1385111487 Lowest eigenvalue:   -7892.9219571416
Iteration: 12 Energy: -22501774.6272926107 Volume:    3395.9682747910 RMS gradient: 48.6284  Max gradient: 2570.34 Number of negative eigenvalues: 12 Number of zero eigenvalues: 3
      Box:      15.0310000000       0.0000000000       0.0000000000     Strain derivative: 5793916.8927118313      -0.0000131440       0.0000002641
                 0.0000000000      15.0310000000       0.0000000000                             -0.0000131439 5793916.8926644921       0.0000044675
                 0.0000000000       0.0000000000      15.0310000000                              0.0000002641       0.0000044675 5793916.8926394945
      Lengths:      15.0310000000      15.0310000000      15.0310000000, Angles:      90.0000000000      90.0000000000      90.0000000000

Computing generalized Hessian matrix
Computing eigenvalues and vectors
Shifting parameter:   -6426.6667203555 Lowest eigenvalue:   -6220.5623249352
Iteration: 13 Energy: -22507824.8110678606 Volume:    3395.9682747910 RMS gradient: 32.9489  Max gradient: 1748.75 Number of negative eigenvalues: 12 Number of zero eigenvalues: 3
      Box:      15.0310000000       0.0000000000       0.0000000000     Strain derivative: 5802269.9456064440      -0.0000039076      -0.0000024096
                 0.0000000000      15.0310000000       0.0000000000                             -0.0000039076 5802269.9455356225       0.0000032492
                 0.0000000000       0.0000000000      15.0310000000                             -0.0000024096       0.0000032492 5802269.9455073318
      Lengths:      15.0310000000      15.0310000000      15.0310000000, Angles:      90.0000000000      90.0000000000      90.0000000000

Computing generalized Hessian matrix
Computing eigenvalues and vectors
Shifting parameter:   -2721.4647438963 Lowest eigenvalue:    -776.2007430740
Iteration: 14 Energy: -22509096.1090802252 Volume:    3395.9682747910 RMS gradient: 96.195  Max gradient: 4816.22 Number of negative eigenvalues: 1 Number of zero eigenvalues: 3
      Box:      15.0310000000       0.0000000000       0.0000000000     Strain derivative: 5818631.8165827319       0.0000081138      -0.0000164866
                 0.0000000000      15.0310000000       0.0000000000                              0.0000081138 5818631.8160185749      -0.0000124163
                 0.0000000000       0.0000000000      15.0310000000                             -0.0000164866      -0.0000124163 5818631.8153366223
      Lengths:      15.0310000000      15.0310000000      15.0310000000, Angles:      90.0000000000      90.0000000000      90.0000000000

Computing generalized Hessian matrix
Computing eigenvalues and vectors
Shifting parameter:   -1063.6977841574 Lowest eigenvalue:   -1063.6967841574
Iteration: 15 Energy: -22510671.3239761852 Volume:    3395.9682747910 RMS gradient: 5.9709  Max gradient: 319.325 Number of negative eigenvalues: 1 Number of zero eigenvalues: 3
      Box:      15.0310000000       0.0000000000       0.0000000000     Strain derivative: 5824793.8864411460       0.0001572660       0.0002573488
                 0.0000000000      15.0310000000       0.0000000000                              0.0001572660 5824793.8865816649      -0.0000570961
                 0.0000000000       0.0000000000      15.0310000000                              0.0002573489      -0.0000570961 5824793.8864290034
      Lengths:      15.0310000000      15.0310000000      15.0310000000, Angles:      90.0000000000      90.0000000000      90.0000000000

Computing generalized Hessian matrix
Computing eigenvalues and vectors
Shifting parameter:   -1019.5036059672 Lowest eigenvalue:   -1019.5026059672
Iteration: 16 Energy: -22510677.5626263060 Volume:    3395.9682747910 RMS gradient: 0.0360852  Max gradient: 2.04086 Number of negative eigenvalues: 1 Number of zero eigenvalues: 3
      Box:      15.0310000000       0.0000000000       0.0000000000     Strain derivative: 5824896.9022738067      -0.0000004641       0.0000037890
                 0.0000000000      15.0310000000       0.0000000000                             -0.0000004641 5824896.9022470573       0.0000135485
                 0.0000000000       0.0000000000      15.0310000000                              0.0000037891       0.0000135485 5824896.9022544175
      Lengths:      15.0310000000      15.0310000000      15.0310000000, Angles:      90.0000000000      90.0000000000      90.0000000000

Computing generalized Hessian matrix
Computing eigenvalues and vectors
Shifting parameter:   -1018.2420432328 Lowest eigenvalue:   -1018.2125845461
Iteration: 17 Energy: -22510677.5809887908 Volume:    3395.9682747910 RMS gradient: 0.0127131  Max gradient: 0.793682 Number of negative eigenvalues: 1 Number of zero eigenvalues: 3
      Box:      15.0310000000       0.0000000000       0.0000000000     Strain derivative: 5824913.3256643834       0.0000003013       0.0000006234
                 0.0000000000      15.0310000000       0.0000000000                              0.0000003013 5824913.3256653044      -0.0000002573
                 0.0000000000       0.0000000000      15.0310000000                              0.0000006234      -0.0000002574 5824913.3256646637
      Lengths:      15.0310000000      15.0310000000      15.0310000000, Angles:      90.0000000000      90.0000000000      90.0000000000

Computing generalized Hessian matrix
Computing eigenvalues and vectors
Shifting parameter:   -1015.3347646090 Lowest eigenvalue:   -1015.0010452614
Iteration: 18 Energy: -22510677.7636112161 Volume:    3395.9682747910 RMS gradient: 0.0430815  Max gradient: 2.63829 Number of negative eigenvalues: 1 Number of zero eigenvalues: 3
      Box:      15.0310000000       0.0000000000       0.0000000000     Strain derivative: 5824921.4706487004       0.0000006588      -0.0000007973
                 0.0000000000      15.0310000000       0.0000000000                              0.0000006588 5824921.4706470659      -0.0000012693
                 0.0000000000       0.0000000000      15.0310000000                             -0.0000007973      -0.0000012694 5824921.4706493989
      Lengths:      15.0310000000      15.0310000000      15.0310000000, Angles:      90.0000000000      90.0000000000      90.0000000000

Computing generalized Hessian matrix
Computing eigenvalues and vectors
Shifting parameter:    -982.0985807296 Lowest eigenvalue:    -978.2367446274
Iteration: 19 Energy: -22510679.8389934823 Volume:    3395.9682747910 RMS gradient: 0.158329  Max gradient: 8.74356 Number of negative eigenvalues: 1 Number of zero eigenvalues: 3
      Box:      15.0310000000       0.0000000000       0.0000000000     Strain derivative: 5825015.0093885763      -0.0000021491      -0.0000009108
                 0.0000000000      15.0310000000       0.0000000000                             -0.0000021491 5825015.0093449056      -0.0000035111
                 0.0000000000       0.0000000000      15.0310000000                             -0.0000009109      -0.0000035111 5825015.0093795676
      Lengths:      15.0310000000      15.0310000000      15.0310000000, Angles:      90.0000000000      90.0000000000      90.0000000000

Computing generalized Hessian matrix
Computing eigenvalues and vectors
Shifting parameter:    -563.2765708496 Lowest eigenvalue:    -498.8367011818
Iteration: 20 Energy: -22510704.3397376649 Volume:    3395.9682747910 RMS gradient: 1.01684  Max gradient: 51.3851 Number of negative eigenvalues: 1 Number of zero eigenvalues: 3
      Box:      15.0310000000       0.0000000000       0.0000000000     Strain derivative: 5826278.3102293331      -0.0000002335      -0.0000025717
                 0.0000000000      15.0310000000       0.0000000000                             -0.0000002335 5826278.3101886250       0.0000055345
                 0.0000000000       0.0000000000      15.0310000000                             -0.0000025717       0.0000055344 5826278.3101989133
      Lengths:      15.0310000000      15.0310000000      15.0310000000, Angles:      90.0000000000      90.0000000000      90.0000000000

Computing generalized Hessian matrix
Computing eigenvalues and vectors
Shifting parameter:     -21.1736978193 Lowest eigenvalue:    1764.1305635808
Iteration: 21 Energy: -22510764.6840258539 Volume:    3395.9682747910 RMS gradient: 3.93255  Max gradient: 217.304 Number of negative eigenvalues: 0 Number of zero eigenvalues: 3
      Box:      15.0310000000       0.0000000000       0.0000000000     Strain derivative: 5830441.4160318309       0.0000065315       0.0000418250
                 0.0000000000      15.0310000000       0.0000000000                              0.0000065315 5830441.4162735026       0.0000205403
                 0.0000000000       0.0000000000      15.0310000000                              0.0000418250       0.0000205403 5830441.4161595944
      Lengths:      15.0310000000      15.0310000000      15.0310000000, Angles:      90.0000000000      90.0000000000      90.0000000000

Computing generalized Hessian matrix
Computing eigenvalues and vectors
Shifting parameter:      -0.0142984150 Lowest eigenvalue:    2003.2064752701
Iteration: 22 Energy: -22510777.6459526420 Volume:    3395.9682747910 RMS gradient: 0.0985708  Max gradient: 5.54273 Number of negative eigenvalues: 0 Number of zero eigenvalues: 3
      Box:      15.0310000000       0.0000000000       0.0000000000     Strain derivative: 5824238.8584920997       0.0000087399       0.0000019115
                 0.0000000000      15.0310000000       0.0000000000                              0.0000087399 5824238.8584708376       0.0000024780
                 0.0000000000       0.0000000000      15.0310000000                              0.0000019115       0.0000024781 5824238.8584596012
      Lengths:      15.0310000000      15.0310000000      15.0310000000, Angles:      90.0000000000      90.0000000000      90.0000000000

Computing generalized Hessian matrix
Computing eigenvalues and vectors
Shifting parameter:      -0.0000000048 Lowest eigenvalue:    2009.2140431731
Iteration: 23 Energy: -22510777.6545545757 Volume:    3395.9682747910 RMS gradient: 6.2368e-05  Max gradient: 0.00350154 Number of negative eigenvalues: 0 Number of zero eigenvalues: 3
      Box:      15.0310000000       0.0000000000       0.0000000000     Strain derivative: 5824070.1050757179      -0.0000000484       0.0000001472
                 0.0000000000      15.0310000000       0.0000000000                             -0.0000000484 5824070.1050752308      -0.0000000899
                 0.0000000000       0.0000000000      15.0310000000                              0.0000001472      -0.0000000899 5824070.1050758464
      Lengths:      15.0310000000      15.0310000000      15.0310000000, Angles:      90.0000000000      90.0000000000      90.0000000000

Computing generalized Hessian matrix
Computing eigenvalues and vectors
Shifting parameter:      -0.0000000000 Lowest eigenvalue:    2009.2142484686
Iteration: 24 Energy: -22510777.6545544527 Volume:    3395.9682747910 RMS gradient: 1.65745e-11  Max gradient: 1.35492e-09 Number of negative eigenvalues: 0 Number of zero eigenvalues: 3
      Box:      15.0310000000       0.0000000000       0.0000000000     Strain derivative: 5824070.0002140142       0.0000000005       0.0000000016
                 0.0000000000      15.0310000000       0.0000000000                              0.0000000005 5824070.0002140263       0.0000000001
                 0.0000000000       0.0000000000      15.0310000000                              0.0000000016       0.0000000001 5824070.0002140151
      Lengths:      15.0310000000      15.0310000000      15.0310000000, Angles:      90.0000000000      90.0000000000      90.0000000000

SUCCES: RMS Gradient tolerance 1e-06 reached (1.65745e-11)
        Max Gradient tolerance 1e-06 reached (1.35492e-09)


Variable vector:
================
x: 0 = 3.75375
x: 1 = 1.4576
x: 2 = 6.07115
x: 3 = 3.20191
x: 4 = -2.44991e-10
x: 5 = 6.05852
x: 6 = 2.56367
x: 7 = 2.57367
x: 8 = 5.93439
x: 9 = 13.5867
x: 10 = 3.76175
x: 11 = 6.0579
x: 12 = -5.40529e-10
x: 13 = 3.20018
x: 14 = 5.89538
x: 15 = 12.4673
x: 16 = 2.57367
x: 17 = 5.93439
x: 18 = 11.2772
x: 19 = 13.5734
x: 20 = 6.07115
x: 21 = 11.8291
x: 22 = -2.44992e-10
x: 23 = 6.05852
x: 24 = 12.4673
x: 25 = 12.4573
x: 26 = 5.93439
x: 27 = 1.44435
x: 28 = 11.2693
x: 29 = 6.0579
x: 30 = -5.4053e-10
x: 31 = 11.8308
x: 32 = 5.89538
x: 33 = 2.56367
x: 34 = 12.4573
x: 35 = 5.93439
x: 36 = 3.75375
x: 37 = 13.5734
x: 38 = 8.95985
x: 39 = 3.20191
x: 40 = -2.44992e-10
x: 41 = 8.97248
x: 42 = 2.56367
x: 43 = 12.4573
x: 44 = 9.09661
x: 45 = 1.44435
x: 46 = 3.76175
x: 47 = 8.9731
x: 48 = -5.4053e-10
x: 49 = 3.20018
x: 50 = 9.13562
x: 51 = 2.56367
x: 52 = 2.57367
x: 53 = 9.09661
x: 54 = 11.2772
x: 55 = 1.4576
x: 56 = 8.95985
x: 57 = 11.8291
x: 58 = -2.44992e-10
x: 59 = 8.97248
x: 60 = 12.4673
x: 61 = 2.57367
x: 62 = 9.09661
x: 63 = 13.5867
x: 64 = 11.2693
x: 65 = 8.9731
x: 66 = -5.40531e-10
x: 67 = 11.8308
x: 68 = 9.13562
x: 69 = 12.4673
x: 70 = 12.4573
x: 71 = 9.09661
x: 72 = 6.07115
x: 73 = 3.75375
x: 74 = 1.4576
x: 75 = 6.05852
x: 76 = 3.20191
x: 77 = 1.27217e-09
x: 78 = 5.93439
x: 79 = 2.56367
x: 80 = 2.57367
x: 81 = 11.2693
x: 82 = 6.0579
x: 83 = 1.44435
x: 84 = 11.8308
x: 85 = 5.89538
x: 86 = 1.27217e-09
x: 87 = 12.4573
x: 88 = 5.93439
x: 89 = 2.56367
x: 90 = 8.95985
x: 91 = 11.2772
x: 92 = 1.4576
x: 93 = 8.97248
x: 94 = 11.8291
x: 95 = 1.27217e-09
x: 96 = 9.09661
x: 97 = 12.4673
x: 98 = 2.57367
x: 99 = 3.76175
x: 100 = 8.9731
x: 101 = 1.44435
x: 102 = 3.20018
x: 103 = 9.13562
x: 104 = 1.27217e-09
x: 105 = 2.57367
x: 106 = 9.09661
x: 107 = 2.56367
x: 108 = 6.07115
x: 109 = 11.2772
x: 110 = 13.5734
x: 111 = 6.05852
x: 112 = 11.8291
x: 113 = 1.27217e-09
x: 114 = 5.93439
x: 115 = 12.4673
x: 116 = 12.4573
x: 117 = 3.76175
x: 118 = 6.0579
x: 119 = 13.5867
x: 120 = 3.20018
x: 121 = 5.89538
x: 122 = 1.27217e-09
x: 123 = 2.57367
x: 124 = 5.93439
x: 125 = 12.4673
x: 126 = 8.95985
x: 127 = 3.75375
x: 128 = 13.5734
x: 129 = 8.97248
x: 130 = 3.20191
x: 131 = 1.27217e-09
x: 132 = 9.09661
x: 133 = 2.56367
x: 134 = 12.4573
x: 135 = 11.2693
x: 136 = 8.9731
x: 137 = 13.5867
x: 138 = 11.8308
x: 139 = 9.13562
x: 140 = 1.27217e-09
x: 141 = 12.4573
x: 142 = 9.09661
x: 143 = 12.4673
x: 144 = 1.4576
x: 145 = 6.07115
x: 146 = 3.75375
x: 147 = -5.4053e-10
x: 148 = 6.05852
x: 149 = 3.20191
x: 150 = 2.57367
x: 151 = 5.93439
x: 152 = 2.56367
x: 153 = 1.4576
x: 154 = 8.95985
x: 155 = 11.2772
x: 156 = -5.40529e-10
x: 157 = 8.97248
x: 158 = 11.8291
x: 159 = 2.57367
x: 160 = 9.09661
x: 161 = 12.4673
x: 162 = 6.0579
x: 163 = 1.44435
x: 164 = 11.2693
x: 165 = 5.89538
x: 166 = -2.44992e-10
x: 167 = 11.8308
x: 168 = 5.93439
x: 169 = 2.56367
x: 170 = 12.4573
x: 171 = 13.5734
x: 172 = 6.07115
x: 173 = 11.2772
x: 174 = -5.40529e-10
x: 175 = 6.05852
x: 176 = 11.8291
x: 177 = 12.4573
x: 178 = 5.93439
x: 179 = 12.4673
x: 180 = 8.9731
x: 181 = 13.5867
x: 182 = 11.2693
x: 183 = 9.13562
x: 184 = -2.44991e-10
x: 185 = 11.8308
x: 186 = 9.09661
x: 187 = 12.4673
x: 188 = 12.4573
x: 189 = 13.5734
x: 190 = 8.95985
x: 191 = 3.75375
x: 192 = -5.4053e-10
x: 193 = 8.97248
x: 194 = 3.20191
x: 195 = 12.4573
x: 196 = 9.09661
x: 197 = 2.56367
x: 198 = 6.0579
x: 199 = 13.5867
x: 200 = 3.76175
x: 201 = 5.89538
x: 202 = -2.4499e-10
x: 203 = 3.20018
x: 204 = 5.93439
x: 205 = 12.4673
x: 206 = 2.57367
x: 207 = 8.9731
x: 208 = 1.44435
x: 209 = 3.76175
x: 210 = 9.13562
x: 211 = -2.44991e-10
x: 212 = 3.20018
x: 213 = 9.09661
x: 214 = 2.56367
x: 215 = 2.57367
x: 216 = 11.2772
x: 217 = 13.5734
x: 218 = 8.95985
x: 219 = 1.44435
x: 220 = 11.2693
x: 221 = 8.9731
x: 222 = 3.75375
x: 223 = 1.4576
x: 224 = 8.95985
x: 225 = 13.5867
x: 226 = 3.76175
x: 227 = 8.9731
x: 228 = 11.2772
x: 229 = 1.4576
x: 230 = 6.07115
x: 231 = 13.5867
x: 232 = 11.2693
x: 233 = 6.0579
x: 234 = 3.75375
x: 235 = 13.5734
x: 236 = 6.07115
x: 237 = 1.44435
x: 238 = 3.76175
x: 239 = 6.0579
x: 240 = 8.95985
x: 241 = 11.2772
x: 242 = 13.5734
x: 243 = 3.76175
x: 244 = 8.9731
x: 245 = 13.5867
x: 246 = 6.07115
x: 247 = 3.75375
x: 248 = 13.5734
x: 249 = 11.2693
x: 250 = 6.0579
x: 251 = 13.5867
x: 252 = 8.95985
x: 253 = 3.75375
x: 254 = 1.4576
x: 255 = 11.2693
x: 256 = 8.9731
x: 257 = 1.44435
x: 258 = 6.07115
x: 259 = 11.2772
x: 260 = 1.4576
x: 261 = 3.76175
x: 262 = 6.0579
x: 263 = 1.44435
x: 264 = 13.5734
x: 265 = 8.95985
x: 266 = 11.2772
x: 267 = 13.5734
x: 268 = 6.07115
x: 269 = 3.75375
x: 270 = 8.9731
x: 271 = 13.5867
x: 272 = 3.76175
x: 273 = 1.4576
x: 274 = 8.95985
x: 275 = 3.75375
x: 276 = 6.0579
x: 277 = 1.44435
x: 278 = 3.76175
x: 279 = 1.4576
x: 280 = 6.07115
x: 281 = 11.2772
x: 282 = 8.9731
x: 283 = 1.44435
x: 284 = 11.2693
x: 285 = 6.0579
x: 286 = 13.5867
x: 287 = 11.2693
x: 288 = 10.7174
x: 289 = 7.5155
x: 290 = 13.574
x: 291 = 10.0792
x: 292 = 10.0892
x: 293 = 13.4499
x: 294 = 7.5155
x: 295 = 10.7157
x: 296 = 13.4109
x: 297 = 4.95183
x: 298 = 10.0892
x: 299 = 13.4499
x: 300 = 4.31359
x: 301 = 7.5155
x: 302 = 13.574
x: 303 = 4.95183
x: 304 = 4.94183
x: 305 = 13.4499
x: 306 = 7.5155
x: 307 = 4.31532
x: 308 = 13.4109
x: 309 = 10.0792
x: 310 = 4.94183
x: 311 = 13.4499
x: 312 = 10.7174
x: 313 = 7.5155
x: 314 = 1.45698
x: 315 = 10.0792
x: 316 = 4.94183
x: 317 = 1.58111
x: 318 = 7.5155
x: 319 = 10.7157
x: 320 = 1.62012
x: 321 = 10.0792
x: 322 = 10.0892
x: 323 = 1.58111
x: 324 = 4.31359
x: 325 = 7.5155
x: 326 = 1.45698
x: 327 = 4.95183
x: 328 = 10.0892
x: 329 = 1.58111
x: 330 = 7.5155
x: 331 = 4.31532
x: 332 = 1.62012
x: 333 = 4.95183
x: 334 = 4.94183
x: 335 = 1.58111
x: 336 = 13.574
x: 337 = 10.7174
x: 338 = 7.5155
x: 339 = 13.4499
x: 340 = 10.0792
x: 341 = 10.0892
x: 342 = 4.31532
x: 343 = 13.4109
x: 344 = 7.5155
x: 345 = 4.94183
x: 346 = 13.4499
x: 347 = 10.0792
x: 348 = 1.45698
x: 349 = 4.31359
x: 350 = 7.5155
x: 351 = 1.58111
x: 352 = 4.95183
x: 353 = 10.0892
x: 354 = 10.7157
x: 355 = 1.62012
x: 356 = 7.5155
x: 357 = 10.0892
x: 358 = 1.58111
x: 359 = 10.0792
x: 360 = 13.574
x: 361 = 4.31359
x: 362 = 7.5155
x: 363 = 13.4499
x: 364 = 4.95183
x: 365 = 4.94183
x: 366 = 10.7157
x: 367 = 13.4109
x: 368 = 7.5155
x: 369 = 10.0892
x: 370 = 13.4499
x: 371 = 4.95183
x: 372 = 1.45698
x: 373 = 10.7174
x: 374 = 7.5155
x: 375 = 1.58111
x: 376 = 10.0792
x: 377 = 4.94183
x: 378 = 4.31532
x: 379 = 1.62012
x: 380 = 7.5155
x: 381 = 4.94183
x: 382 = 1.58111
x: 383 = 4.95183
x: 384 = 7.5155
x: 385 = 13.574
x: 386 = 10.7174
x: 387 = 10.0892
x: 388 = 13.4499
x: 389 = 10.0792
x: 390 = 7.5155
x: 391 = 1.45698
x: 392 = 4.31359
x: 393 = 10.0892
x: 394 = 1.58111
x: 395 = 4.95183
x: 396 = 13.4109
x: 397 = 7.5155
x: 398 = 4.31532
x: 399 = 13.4499
x: 400 = 10.0792
x: 401 = 4.94183
x: 402 = 7.5155
x: 403 = 13.574
x: 404 = 4.31359
x: 405 = 4.94183
x: 406 = 13.4499
x: 407 = 4.95183
x: 408 = 1.62012
x: 409 = 7.5155
x: 410 = 4.31532
x: 411 = 1.58111
x: 412 = 4.95183
x: 413 = 4.94183
x: 414 = 7.5155
x: 415 = 1.45698
x: 416 = 10.7174
x: 417 = 4.94183
x: 418 = 1.58111
x: 419 = 10.0792
x: 420 = 13.4109
x: 421 = 7.5155
x: 422 = 10.7157
x: 423 = 13.4499
x: 424 = 4.95183
x: 425 = 10.0892
x: 426 = 1.62012
x: 427 = 7.5155
x: 428 = 10.7157
x: 429 = 1.58111
x: 430 = 10.0792
x: 431 = 10.0892




Gradient vector:
================
Gradient: 0 = -2.36469e-11
Gradient: 1 = 4.02679e-10
Gradient: 2 = -1.58252e-10
Gradient: 3 = -3.52884e-10
Gradient: 4 = -7.62157e-10
Gradient: 5 = -1.35969e-10
Gradient: 6 = -2.95586e-11
Gradient: 7 = 2.27374e-11
Gradient: 8 = 4.09273e-11
Gradient: 9 = 7.48059e-11
Gradient: 10 = 1.76442e-10
Gradient: 11 = 5.82077e-11
Gradient: 12 = -1.42791e-10
Gradient: 13 = -6.03904e-10
Gradient: 14 = 1.29148e-10
Gradient: 15 = -3.00133e-11
Gradient: 16 = -9.04947e-11
Gradient: 17 = -1.04592e-10
Gradient: 18 = 3.27418e-11
Gradient: 19 = -4.75666e-10
Gradient: 20 = -1.76442e-10
Gradient: 21 = 5.83896e-10
Gradient: 22 = -4.54747e-12
Gradient: 23 = -1.05047e-10
Gradient: 24 = 7.27596e-12
Gradient: 25 = 1.0732e-10
Gradient: 26 = 1.63254e-10
Gradient: 27 = 1.82581e-10
Gradient: 28 = -3.34694e-10
Gradient: 29 = -8.18545e-11
Gradient: 30 = -2.09184e-10
Gradient: 31 = 6.53927e-10
Gradient: 32 = 5.18412e-11
Gradient: 33 = -2.54659e-10
Gradient: 34 = -3.87445e-10
Gradient: 35 = -2.17369e-10
Gradient: 36 = -1.81899e-11
Gradient: 37 = -1.15278e-10
Gradient: 38 = 4.76575e-10
Gradient: 39 = -4.44743e-10
Gradient: 40 = -1.90994e-10
Gradient: 41 = 1.20508e-10
Gradient: 42 = -4.502e-11
Gradient: 43 = 4.91127e-11
Gradient: 44 = -5.52063e-10
Gradient: 45 = 3.80396e-10
Gradient: 46 = 2.76486e-10
Gradient: 47 = -4.54747e-10
Gradient: 48 = 1.90084e-10
Gradient: 49 = -7.5579e-10
Gradient: 50 = 3.18323e-11
Gradient: 51 = 1.72804e-11
Gradient: 52 = -9.09495e-11
Gradient: 53 = 2.51475e-10
Gradient: 54 = -1.03682e-10
Gradient: 55 = 2.03272e-10
Gradient: 56 = 3.36513e-10
Gradient: 57 = 4.65661e-10
Gradient: 58 = -4.40195e-10
Gradient: 59 = 6.77574e-11
Gradient: 60 = 4.96129e-10
Gradient: 61 = -5.45697e-12
Gradient: 62 = 4.46107e-10
Gradient: 63 = -3.60842e-10
Gradient: 64 = -1.78261e-10
Gradient: 65 = 2.00089e-10
Gradient: 66 = -6.45741e-11
Gradient: 67 = 4.62023e-10
Gradient: 68 = -7.9126e-11
Gradient: 69 = 4.65661e-10
Gradient: 70 = -2.62844e-10
Gradient: 71 = 3.43334e-10
Gradient: 72 = -4.96584e-10
Gradient: 73 = 1.30967e-10
Gradient: 74 = -1.46201e-10
Gradient: 75 = -5.82077e-11
Gradient: 76 = -3.2378e-10
Gradient: 77 = -6.23913e-10
Gradient: 78 = -1.10958e-10
Gradient: 79 = -2.18733e-10
Gradient: 80 = 2.63753e-11
Gradient: 81 = -1.54614e-10
Gradient: 82 = -3.32875e-10
Gradient: 83 = 4.12228e-10
Gradient: 84 = 7.76708e-10
Gradient: 85 = -2.50111e-11
Gradient: 86 = 1.95541e-10
Gradient: 87 = -3.89264e-10
Gradient: 88 = 5.70253e-10
Gradient: 89 = 1.49157e-10
Gradient: 90 = -1.76442e-10
Gradient: 91 = 1.40062e-10
Gradient: 92 = 1.54387e-10
Gradient: 93 = 9.86802e-11
Gradient: 94 = 4.03816e-10
Gradient: 95 = -2.84672e-10
Gradient: 96 = -1.87356e-10
Gradient: 97 = -3.26509e-10
Gradient: 98 = 9.27685e-11
Gradient: 99 = 4.72937e-11
Gradient: 100 = 3.58341e-10
Gradient: 101 = 1.07548e-10
Gradient: 102 = -5.26597e-10
Gradient: 103 = -8.59472e-11
Gradient: 104 = -2.25555e-10
Gradient: 105 = 1.69166e-10
Gradient: 106 = 1.36424e-10
Gradient: 107 = 2.54659e-10
Gradient: 108 = -4.25644e-10
Gradient: 109 = 4.09273e-10
Gradient: 110 = 4.40878e-10
Gradient: 111 = -9.27685e-11
Gradient: 112 = 3.11957e-10
Gradient: 113 = -4.81123e-10
Gradient: 114 = 1.27329e-11
Gradient: 115 = -4.47471e-10
Gradient: 116 = -3.56522e-10
Gradient: 117 = -5.45697e-12
Gradient: 118 = -3.27418e-10
Gradient: 119 = 2.69438e-10
Gradient: 120 = -4.87489e-10
Gradient: 121 = 9.77707e-11
Gradient: 122 = -2.82853e-10
Gradient: 123 = -2.68301e-11
Gradient: 124 = -3.00133e-11
Gradient: 125 = -1.14596e-10
Gradient: 126 = 1.32786e-10
Gradient: 127 = -1.60071e-10
Gradient: 128 = -7.23048e-10
Gradient: 129 = 1.12777e-10
Gradient: 130 = -5.31145e-10
Gradient: 131 = 2.72848e-12
Gradient: 132 = -1.59162e-10
Gradient: 133 = 1.94177e-10
Gradient: 134 = 1.2642e-10
Gradient: 135 = 1.60071e-10
Gradient: 136 = -2.63753e-10
Gradient: 137 = 9.57243e-11
Gradient: 138 = 5.60249e-10
Gradient: 139 = -2.91038e-11
Gradient: 140 = 7.7307e-11
Gradient: 141 = 2.27374e-11
Gradient: 142 = 3.09228e-11
Gradient: 143 = -4.54747e-11
Gradient: 144 = 2.88992e-10
Gradient: 145 = -1.18234e-10
Gradient: 146 = -1.52795e-10
Gradient: 147 = -4.20187e-10
Gradient: 148 = -1.32331e-10
Gradient: 149 = -3.64707e-10
Gradient: 150 = 9.59517e-11
Gradient: 151 = 1.57343e-10
Gradient: 152 = 6.18456e-11
Gradient: 153 = 1.31195e-10
Gradient: 154 = 9.29504e-10
Gradient: 155 = -3.32875e-10
Gradient: 156 = -9.1859e-11
Gradient: 157 = 1.14596e-10
Gradient: 158 = 6.10271e-10
Gradient: 159 = 2.7967e-10
Gradient: 160 = -9.44965e-10
Gradient: 161 = -1.70076e-10
Gradient: 162 = -3.00133e-10
Gradient: 163 = 1.96451e-10
Gradient: 164 = -2.41926e-10
Gradient: 165 = 1.40972e-10
Gradient: 166 = -4.09273e-10
Gradient: 167 = 5.92081e-10
Gradient: 168 = 9.32232e-11
Gradient: 169 = 2.68301e-11
Gradient: 170 = -3.00133e-10
Gradient: 171 = -7.18728e-10
Gradient: 172 = 4.45652e-10
Gradient: 173 = -3.27418e-11
Gradient: 174 = -7.45786e-11
Gradient: 175 = -1.56433e-10
Gradient: 176 = 5.78439e-10
Gradient: 177 = 1.44155e-10
Gradient: 178 = -7.29415e-10
Gradient: 179 = 4.96584e-10
Gradient: 180 = 7.85803e-10
Gradient: 181 = 1.22554e-10
Gradient: 182 = -2.81943e-10
Gradient: 183 = -4.09273e-11
Gradient: 184 = -1.47338e-10
Gradient: 185 = 5.95264e-10
Gradient: 186 = -7.70797e-10
Gradient: 187 = -4.33829e-10
Gradient: 188 = -2.78305e-10
Gradient: 189 = -4.52701e-10
Gradient: 190 = 9.84073e-10
Gradient: 191 = -2.78305e-10
Gradient: 192 = 1.36424e-11
Gradient: 193 = 8.6402e-11
Gradient: 194 = -4.69754e-10
Gradient: 195 = 8.91305e-11
Gradient: 196 = -6.93035e-10
Gradient: 197 = 1.437e-10
Gradient: 198 = -8.18545e-11
Gradient: 199 = -2.251e-10
Gradient: 200 = 1.9827e-10
Gradient: 201 = 1.3415e-10
Gradient: 202 = 1.30967e-10
Gradient: 203 = -7.29415e-10
Gradient: 204 = 1.12777e-10
Gradient: 205 = 1.81899e-12
Gradient: 206 = 2.04636e-10
Gradient: 207 = 3.27418e-10
Gradient: 208 = 2.50338e-10
Gradient: 209 = 1.45519e-10
Gradient: 210 = -1.58252e-10
Gradient: 211 = -1.76442e-10
Gradient: 212 = -5.17048e-10
Gradient: 213 = 2.59661e-10
Gradient: 214 = -7.04858e-11
Gradient: 215 = 1.36424e-11
Gradient: 216 = -2.36469e-11
Gradient: 217 = 3.55612e-10
Gradient: 218 = 7.82165e-11
Gradient: 219 = -2.93312e-11
Gradient: 220 = -3.31056e-10
Gradient: 221 = 2.31012e-10
Gradient: 222 = -4.36557e-11
Gradient: 223 = 8.93579e-11
Gradient: 224 = 2.18279e-11
Gradient: 225 = -1.28739e-09
Gradient: 226 = 2.43745e-10
Gradient: 227 = -7.63976e-11
Gradient: 228 = 8.00355e-11
Gradient: 229 = 3.53111e-10
Gradient: 230 = -7.09406e-11
Gradient: 231 = 2.41016e-11
Gradient: 232 = 1.63709e-10
Gradient: 233 = -2.71029e-10
Gradient: 234 = -1.40062e-10
Gradient: 235 = 1.01568e-09
Gradient: 236 = 1.41881e-10
Gradient: 237 = 2.40561e-10
Gradient: 238 = -8.18545e-11
Gradient: 239 = -2.05546e-10
Gradient: 240 = 1.04592e-09
Gradient: 241 = 3.2469e-10
Gradient: 242 = 5.72754e-10
Gradient: 243 = -2.65572e-10
Gradient: 244 = 2.85581e-10
Gradient: 245 = 1.08301e-10
Gradient: 246 = -1.16415e-10
Gradient: 247 = -3.47427e-10
Gradient: 248 = 6.97355e-10
Gradient: 249 = -3.94721e-10
Gradient: 250 = 3.43789e-10
[...]
	Block[ 2]            0.00000 [K]
	Block[ 3]            0.00000 [K]
	Block[ 4]            0.00000 [K]
	------------------------------------------------------------------------------
	Average              0.00000 [K] +/-            0.00000 [K]

Average Adsorbate Bend-Bend cross term energy:
==============================================
	Block[ 0]            0.00000 [K]
	Block[ 1]            0.00000 [K]
	Block[ 2]            0.00000 [K]
	Block[ 3]            0.00000 [K]
	Block[ 4]            0.00000 [K]
	------------------------------------------------------------------------------
	Average              0.00000 [K] +/-            0.00000 [K]

Average Adsorbate Bond-Bend cross term energy:
=================================================
	Block[ 0]            0.00000 [K]
	Block[ 1]            0.00000 [K]
	Block[ 2]            0.00000 [K]
	Block[ 3]            0.00000 [K]
	Block[ 4]            0.00000 [K]
	------------------------------------------------------------------------------
	Average              0.00000 [K] +/-            0.00000 [K]

Average Adsorbate Bond-Torsion cross term energy:
=================================================
	Block[ 0]            0.00000 [K]
	Block[ 1]            0.00000 [K]
	Block[ 2]            0.00000 [K]
	Block[ 3]            0.00000 [K]
	Block[ 4]            0.00000 [K]
	------------------------------------------------------------------------------
	Average              0.00000 [K] +/-            0.00000 [K]

Average Adsorbate Bend-Torsion cross term energy:
=================================================
	Block[ 0]            0.00000 [K]
	Block[ 1]            0.00000 [K]
	Block[ 2]            0.00000 [K]
	Block[ 3]            0.00000 [K]
	Block[ 4]            0.00000 [K]
	------------------------------------------------------------------------------
	Average              0.00000 [K] +/-            0.00000 [K]

Average Adsorbate Intra Van der Waals energy:
=============================================
	Block[ 0]            0.00000 [K]
	Block[ 1]            0.00000 [K]
	Block[ 2]            0.00000 [K]
	Block[ 3]            0.00000 [K]
	Block[ 4]            0.00000 [K]
	------------------------------------------------------------------------------
	Average              0.00000 [K] +/-            0.00000 [K]

Average Adsorbate Intra charge-charge Coulomb energy:
=======================================
	Block[ 0]            0.00000 [K]
	Block[ 1]            0.00000 [K]
	Block[ 2]            0.00000 [K]
	Block[ 3]            0.00000 [K]
	Block[ 4]            0.00000 [K]
	------------------------------------------------------------------------------
	Average              0.00000 [K] +/-            0.00000 [K]

Average Adsorbate Intra charge-bonddipole Coulomb energy:
=======================================
	Block[ 0]            0.00000 [K]
	Block[ 1]            0.00000 [K]
	Block[ 2]            0.00000 [K]
	Block[ 3]            0.00000 [K]
	Block[ 4]            0.00000 [K]
	------------------------------------------------------------------------------
	Average              0.00000 [K] +/-            0.00000 [K]

Average Adsorbate Intra bonddipole-bonddipole Coulomb energy:
=======================================
	Block[ 0]            0.00000 [K]
	Block[ 1]            0.00000 [K]
	Block[ 2]            0.00000 [K]
	Block[ 3]            0.00000 [K]
	Block[ 4]            0.00000 [K]
	------------------------------------------------------------------------------
	Average              0.00000 [K] +/-            0.00000 [K]

Average Cation Bond stretch energy:
=================================
	Block[ 0]            0.00000 [K]
	Block[ 1]            0.00000 [K]
	Block[ 2]            0.00000 [K]
	Block[ 3]            0.00000 [K]
	Block[ 4]            0.00000 [K]
	------------------------------------------------------------------------------
	Average              0.00000 [K] +/-            0.00000 [K]

Average Cation UreyBradley stretch energy:
==========================================
	Block[ 0]            0.00000 [K]
	Block[ 1]            0.00000 [K]
	Block[ 2]            0.00000 [K]
	Block[ 3]            0.00000 [K]
	Block[ 4]            0.00000 [K]
	------------------------------------------------------------------------------
	Average              0.00000 [K] +/-            0.00000 [K]

Average Cation Bend angle energy:
=================================
	Block[ 0]            0.00000 [K]
	Block[ 1]            0.00000 [K]
	Block[ 2]            0.00000 [K]
	Block[ 3]            0.00000 [K]
	Block[ 4]            0.00000 [K]
	------------------------------------------------------------------------------
	Average              0.00000 [K] +/-            0.00000 [K]

Average Cation Bend angle inversion energy:
===========================================
	Block[ 0]            0.00000 [K]
	Block[ 1]            0.00000 [K]
	Block[ 2]            0.00000 [K]
	Block[ 3]            0.00000 [K]
	Block[ 4]            0.00000 [K]
	------------------------------------------------------------------------------
	Average              0.00000 [K] +/-            0.00000 [K]

Average Cation Torsion energy:
==============================
	Block[ 0]            0.00000 [K]
	Block[ 1]            0.00000 [K]
	Block[ 2]            0.00000 [K]
	Block[ 3]            0.00000 [K]
	Block[ 4]            0.00000 [K]
	------------------------------------------------------------------------------
	Average              0.00000 [K] +/-            0.00000 [K]

Average Cation Improper Torsion energy:
=======================================
	Block[ 0]            0.00000 [K]
	Block[ 1]            0.00000 [K]
	Block[ 2]            0.00000 [K]
	Block[ 3]            0.00000 [K]
	Block[ 4]            0.00000 [K]
	------------------------------------------------------------------------------
	Average              0.00000 [K] +/-            0.00000 [K]

Average Cation Bond-Bond cross term energy:
=================================================
	Block[ 0]            0.00000 [K]
	Block[ 1]            0.00000 [K]
	Block[ 2]            0.00000 [K]
	Block[ 3]            0.00000 [K]
	Block[ 4]            0.00000 [K]
	------------------------------------------------------------------------------
	Average              0.00000 [K] +/-            0.00000 [K]

Average Cation Bend-Bend cross term energy:
===========================================
	Block[ 0]            0.00000 [K]
	Block[ 1]            0.00000 [K]
	Block[ 2]            0.00000 [K]
	Block[ 3]            0.00000 [K]
	Block[ 4]            0.00000 [K]
	------------------------------------------------------------------------------
	Average              0.00000 [K] +/-            0.00000 [K]

Average Cation Bond-Bend cross term energy:
==============================================
	Block[ 0]            0.00000 [K]
	Block[ 1]            0.00000 [K]
	Block[ 2]            0.00000 [K]
	Block[ 3]            0.00000 [K]
	Block[ 4]            0.00000 [K]
	------------------------------------------------------------------------------
	Average              0.00000 [K] +/-            0.00000 [K]

Average Cation Bond-Torsion cross term energy:
==============================================
	Block[ 0]            0.00000 [K]
	Block[ 1]            0.00000 [K]
	Block[ 2]            0.00000 [K]
	Block[ 3]            0.00000 [K]
	Block[ 4]            0.00000 [K]
	------------------------------------------------------------------------------
	Average              0.00000 [K] +/-            0.00000 [K]

Average Cation Bend-Torsion cross term energy:
==============================================
	Block[ 0]            0.00000 [K]
	Block[ 1]            0.00000 [K]
	Block[ 2]            0.00000 [K]
	Block[ 3]            0.00000 [K]
	Block[ 4]            0.00000 [K]
	------------------------------------------------------------------------------
	Average              0.00000 [K] +/-            0.00000 [K]

Average Cation Intra Van der Waals energy:
==========================================
	Block[ 0]            0.00000 [K]
	Block[ 1]            0.00000 [K]
	Block[ 2]            0.00000 [K]
	Block[ 3]            0.00000 [K]
	Block[ 4]            0.00000 [K]
	------------------------------------------------------------------------------
	Average              0.00000 [K] +/-            0.00000 [K]

Average Cation Intra charge-charge Coulomb energy:
====================================
	Block[ 0]            0.00000 [K]
	Block[ 1]            0.00000 [K]
	Block[ 2]            0.00000 [K]
	Block[ 3]            0.00000 [K]
	Block[ 4]            0.00000 [K]
	------------------------------------------------------------------------------
	Average              0.00000 [K] +/-            0.00000 [K]

Average Cation Intra charge-bonddipole Coulomb energy:
====================================
	Block[ 0]            0.00000 [K]
	Block[ 1]            0.00000 [K]
	Block[ 2]            0.00000 [K]
	Block[ 3]            0.00000 [K]
	Block[ 4]            0.00000 [K]
	------------------------------------------------------------------------------
	Average              0.00000 [K] +/-            0.00000 [K]

Average Cation Intra bonddipole-bonddipole Coulomb energy:
====================================
	Block[ 0]            0.00000 [K]
	Block[ 1]            0.00000 [K]
	Block[ 2]            0.00000 [K]
	Block[ 3]            0.00000 [K]
	Block[ 4]            0.00000 [K]
	------------------------------------------------------------------------------
	Average              0.00000 [K] +/-            0.00000 [K]

Average Host-Host energy:
=========================
	Block[ 0] 0.00000            Van der Waals: 0.00000            Coulomb: 0.00000            [K]
	Block[ 1] 0.00000            Van der Waals: 0.00000            Coulomb: 0.00000            [K]
	Block[ 2] 0.00000            Van der Waals: 0.00000            Coulomb: 0.00000            [K]
	Block[ 3] 0.00000            Van der Waals: 0.00000            Coulomb: 0.00000            [K]
	Block[ 4] 0.00000            Van der Waals: 0.00000            Coulomb: 0.00000            [K]
	------------------------------------------------------------------------------
	Average   0.00000            Van der Waals: 0.000000           Coulomb: 0.00000            [K]
	      +/- 0.00000                       +/- 0.000000                +/- 0.00000            [K]

Average Adsorbate-Adsorbate energy:
===================================
	Block[ 0] 0.00000            Van der Waals: 0.00000            Coulomb: 0.00000            [K]
	Block[ 1] 0.00000            Van der Waals: 0.00000            Coulomb: 0.00000            [K]
	Block[ 2] 0.00000            Van der Waals: 0.00000            Coulomb: 0.00000            [K]
	Block[ 3] 0.00000            Van der Waals: 0.00000            Coulomb: 0.00000            [K]
	Block[ 4] 0.00000            Van der Waals: 0.00000            Coulomb: 0.00000            [K]
	------------------------------------------------------------------------------
	Average   0.00000            Van der Waals: 0.000000           Coulomb: 0.00000            [K]
	      +/- 0.00000                       +/- 0.000000                +/- 0.00000            [K]

Average Cation-Cation energy:
=============================
	Block[ 0] 0.00000            Van der Waals: 0.00000            Coulomb: 0.00000            [K]
	Block[ 1] 0.00000            Van der Waals: 0.00000            Coulomb: 0.00000            [K]
	Block[ 2] 0.00000            Van der Waals: 0.00000            Coulomb: 0.00000            [K]
	Block[ 3] 0.00000            Van der Waals: 0.00000            Coulomb: 0.00000            [K]
	Block[ 4] 0.00000            Van der Waals: 0.00000            Coulomb: 0.00000            [K]
	------------------------------------------------------------------------------
	Average   0.00000            Van der Waals: 0.000000           Coulomb: 0.00000            [K]
	      +/- 0.00000                       +/- 0.000000                +/- 0.00000            [K]

Average Host-Adsorbate energy:
==============================
	Block[ 0] 0.00000            Van der Waals: 0.00000            Coulomb: 0.00000            [K]
	Block[ 1] 0.00000            Van der Waals: 0.00000            Coulomb: 0.00000            [K]
	Block[ 2] 0.00000            Van der Waals: 0.00000            Coulomb: 0.00000            [K]
	Block[ 3] 0.00000            Van der Waals: 0.00000            Coulomb: 0.00000            [K]
	Block[ 4] 0.00000            Van der Waals: 0.00000            Coulomb: 0.00000            [K]
	------------------------------------------------------------------------------
	Average   0.00000            Van der Waals: 0.000000           Coulomb: 0.00000            [K]
	      +/- 0.00000                       +/- 0.000000                +/- 0.00000            [K]

Average Host-Cation energy:
===========================
	Block[ 0] 0.00000            Van der Waals: 0.00000            Coulomb: 0.00000            [K]
	Block[ 1] 0.00000            Van der Waals: 0.00000            Coulomb: 0.00000            [K]
	Block[ 2] 0.00000            Van der Waals: 0.00000            Coulomb: 0.00000            [K]
	Block[ 3] 0.00000            Van der Waals: 0.00000            Coulomb: 0.00000            [K]
	Block[ 4] 0.00000            Van der Waals: 0.00000            Coulomb: 0.00000            [K]
	------------------------------------------------------------------------------
	Average   0.00000            Van der Waals: 0.000000           Coulomb: 0.00000            [K]
	      +/- 0.00000                       +/- 0.000000                +/- 0.00000            [K]

Average Adsorbate-Cation energy:
================================
	Block[ 0] 0.00000            Van der Waals: 0.00000            Coulomb: 0.00000            [K]
	Block[ 1] 0.00000            Van der Waals: 0.00000            Coulomb: 0.00000            [K]
	Block[ 2] 0.00000            Van der Waals: 0.00000            Coulomb: 0.00000            [K]
	Block[ 3] 0.00000            Van der Waals: 0.00000            Coulomb: 0.00000            [K]
	Block[ 4] 0.00000            Van der Waals: 0.00000            Coulomb: 0.00000            [K]
	------------------------------------------------------------------------------
	Average   0.00000            Van der Waals: 0.000000           Coulomb: 0.00000            [K]
	      +/- 0.00000                       +/- 0.000000                +/- 0.00000            [K]

Host polarization energy:
=======================
	Block[ 0]            0.00000 [K]
	Block[ 1]            0.00000 [K]
	Block[ 2]            0.00000 [K]
	Block[ 3]            0.00000 [K]
	Block[ 4]            0.00000 [K]
	------------------------------------------------------------------------------
	Average              0.00000 [K] +/-            0.00000 [K]

Adsorbate polarization energy:
=======================
	Block[ 0]            0.00000 [K]
	Block[ 1]            0.00000 [K]
	Block[ 2]            0.00000 [K]
	Block[ 3]            0.00000 [K]
	Block[ 4]            0.00000 [K]
	------------------------------------------------------------------------------
	Average              0.00000 [K] +/-            0.00000 [K]

Cation polarization energy:
=======================
	Block[ 0]            0.00000 [K]
	Block[ 1]            0.00000 [K]
	Block[ 2]            0.00000 [K]
	Block[ 3]            0.00000 [K]
	Block[ 4]            0.00000 [K]
	------------------------------------------------------------------------------
	Average              0.00000 [K] +/-            0.00000 [K]

Host back-polarization energy:
=======================
	Block[ 0]            0.00000 [K]
	Block[ 1]            0.00000 [K]
	Block[ 2]            0.00000 [K]
	Block[ 3]            0.00000 [K]
	Block[ 4]            0.00000 [K]
	------------------------------------------------------------------------------
	Average              0.00000 [K] +/-            0.00000 [K]

Adsorbate back-polarization energy:
=======================
	Block[ 0]            0.00000 [K]
	Block[ 1]            0.00000 [K]
	Block[ 2]            0.00000 [K]
	Block[ 3]            0.00000 [K]
	Block[ 4]            0.00000 [K]
	------------------------------------------------------------------------------
	Average              0.00000 [K] +/-            0.00000 [K]

Cation back-polarization energy:
=======================
	Block[ 0]            0.00000 [K]
	Block[ 1]            0.00000 [K]
	Block[ 2]            0.00000 [K]
	Block[ 3]            0.00000 [K]
	Block[ 4]            0.00000 [K]
	------------------------------------------------------------------------------
	Average              0.00000 [K] +/-            0.00000 [K]

Tail-correction energy:
=======================
	Block[ 0]            0.00000 [K]
	Block[ 1]            0.00000 [K]
	Block[ 2]            0.00000 [K]
	Block[ 3]            0.00000 [K]
	Block[ 4]            0.00000 [K]
	------------------------------------------------------------------------------
	Average              0.00000 [K] +/-            0.00000 [K]

Distance-constraints energy:
=======================
	Block[ 0]            0.00000 [K]
	Block[ 1]            0.00000 [K]
	Block[ 2]            0.00000 [K]
	Block[ 3]            0.00000 [K]
	Block[ 4]            0.00000 [K]
	------------------------------------------------------------------------------
	Average              0.00000 [K] +/-            0.00000 [K]

Angle-constraints energy:
=======================
	Block[ 0]            0.00000 [K]
	Block[ 1]            0.00000 [K]
	Block[ 2]            0.00000 [K]
	Block[ 3]            0.00000 [K]
	Block[ 4]            0.00000 [K]
	------------------------------------------------------------------------------
	Average              0.00000 [K] +/-            0.00000 [K]

Dihedral-constraints energy:
=======================
	Block[ 0]            0.00000 [K]
	Block[ 1]            0.00000 [K]
	Block[ 2]            0.00000 [K]
	Block[ 3]            0.00000 [K]
	Block[ 4]            0.00000 [K]
	------------------------------------------------------------------------------
	Average              0.00000 [K] +/-            0.00000 [K]

Inversion-bend constraints energy:
=======================
	Block[ 0]            0.00000 [K]
	Block[ 1]            0.00000 [K]
	Block[ 2]            0.00000 [K]
	Block[ 3]            0.00000 [K]
	Block[ 4]            0.00000 [K]
	------------------------------------------------------------------------------
	Average              0.00000 [K] +/-            0.00000 [K]

Out-of-plane-distance constraints energy:
=======================
	Block[ 0]            0.00000 [K]
	Block[ 1]            0.00000 [K]
	Block[ 2]            0.00000 [K]
	Block[ 3]            0.00000 [K]
	Block[ 4]            0.00000 [K]
	------------------------------------------------------------------------------
	Average              0.00000 [K] +/-            0.00000 [K]

Exclusion-constraints energy:
=======================
	Block[ 0]            0.00000 [K]
	Block[ 1]            0.00000 [K]
	Block[ 2]            0.00000 [K]
	Block[ 3]            0.00000 [K]
	Block[ 4]            0.00000 [K]
	------------------------------------------------------------------------------
	Average              0.00000 [K] +/-            0.00000 [K]

Total energy:
=============
	Block[ 0]            0.00000 [K]
	Block[ 1]            0.00000 [K]
	Block[ 2]            0.00000 [K]
	Block[ 3]            0.00000 [K]
	Block[ 4]            0.00000 [K]
	------------------------------------------------------------------------------
	Average              0.00000 [K] +/-            0.00000 [K]

Number of molecules:
====================


Average Widom Rosenbluth factor:
================================

Average Henry coefficient:
==========================

Average adsorption energy <U_gh>_1-<U_h>_0 obtained from Widom-insertion:
(Note: the total heat of adsorption is dH=<U_gh>_1-<U_h>_0 - <U_g> - RT)
=========================================================================

Simulation finished,  0 warnings

Tue Apr 16 15:09:14 2013
Simulation finished on Tuesday, April 16.
The end time was 03:09 PM.

