Compiler and run-time data
===========================================================================
RASPA 1.8-0
Compiled as a 64-bits application
Compiler: gcc 4.2.1 (Based on Apple Inc. build 5658) (LLVM build 2336.11.00)
Compile Date = Apr 16 2013, Compile Time = 14:47:55

Tue Apr 16 14:51:55 2013
Simulation started on Tuesday, April 16.
The start time was 02:51 PM.

Cpu data:    x86_64
Cpu Model:   MacPro5,1
Host name:   server.darkwing.nl
OS release:  12.3.0
OS type:     Darwin
OS version:  12D78


Simulation
===========================================================================
Dimensions: 3
Random number seed: 1366116714
RASPA directory set to: /Users/dubbelda/RASPA/simulations/
String appended to output-files: 
Number of cycles: 1
Number of initializing cycles: 0
Number of equilibration cycles: 0
Print every: 1
Triclinic boundary condition applied
Timestep: 0.000500
Initialization Ensemble: NPT (constant number of particles N, constant average pressure P, constant average temperature T)
Production run ensemble: NPT (constant number of particles N, constant average pressure P, constant average temperature T)
	Degrees of freedom:                        432
	Translational Degrees of freedom:          432
	Rotational Degrees of freedom:             0
	Degrees of freedom Framework:              432


Mutual consistent basic set of units:
======================================
Unit of temperature: Kelvin
Unit of length:      1e-10 [m]
Unit of time:        1e-12 [s]
Unit of mass:        1.66054e-27 [kg]
Unit of charge:      1.60218e-19 [C/particle]

Derived units and their conversion factors:
===========================================
Unit of energy:              1.66054e-23 [J]
Unit of force:               1.66054e-13 [N]
Unit of pressure:            1.66054e+07 [Pa]
Unit of velocity:            100 [m/s]
Unit of acceleration:        1e-08 [m^2/s]
Unit of diffusion:           1e-08 [m^2/s]
Unit of dipole moment:       1.60218e-29 [C.m]
Unit of electric potential:  0.000103643 [V]
Unit of electric field:      1.03643e+06 [V]
Unit of polarizability:      1.54587e-35 [-]
Unit of Coulomb potential:   167101.0800066561  [K]
Unit of dielectric constant: 0.0000154587       [s^2 C^2/(kg m^3)]
Unit of wave vectors:        5.3088374589       [cm^1]
Boltzmann constant:          0.8314464919       [-]

Internal conversion factors:
===========================================
Energy to Kelvin:                                    1.2027242847
FH correction factor                                 2.0211930949
Heat capacity conversion factor:                    10.0000088723
From Debye to internal units:                        4.8032067991
Isothermal compressibility conversion factor:        0.0000000602

Energy conversion factors:
===========================================
From mdyne/A to kcal/mol/A^2:           143.933
From mdyne/A to kj/mol/A^2:             602.214
From mdyne/A to K/A^2:                  72429.7
From mdyne A/rad^2 to kcal/mol/deg^2:   0.0438444


Properties computed
===========================================================================
Movies: yes
	Movie snapshots are appended to file every 1 cycles
Radial Distribution Function: no
Number of molecules GCMC histogram: no
Histogram of the molecule positions: no
Free energy profiles: no
Pore Size Distribution Function: no
End-to-end distance: no
Histogram of the energy of the system: no
Compute thermodynamic factors: no
Framework spacing histograms: no
Residence times histograms: no
Distance histograms: no
Bend Angle histograms: no
Dihedral angle histograms: no
Angle between planes histograms: no
Molecule properties: no
Infra-red spectra: no
Mean-squared displacement using modified order-N algorithm: no
Velocity-autocorrelation function modified order-N algorithm: no
Rotational velocity-autocorrelation function modified order-N algorithm: no
Molecular orientation-autocorrelation function modified order-N algorithm: no
Mean-squared displacement (conventional algorithm): no
Velocity-autocorrelation function (conventional algorithm): no
3D density grid for adsorbates: no
Compute cation an/or adsorption sites: no
dcTST snapshots: no
Compute pressure and stress: no


VTK
===========================================================================
VTK fractional-range position framework atoms: [-0.001000,1.001000] [-0.001000,1.001000] [-0.001000,1.001000]
VTK fractional-range position framework bonds: [-0.151000,1.151000] [-0.151000,1.151000] [-0.151000,1.151000]
VTK fractional-range com-position adsorbate molecules: [-0.101000,1.101000] [-0.101000,1.101000] [-0.101000,1.101000]
VTK fractional-range com-position cation molecules: [-0.101000,1.101000] [-0.101000,1.101000] [-0.101000,1.101000]
	3D free energy grid made for the full simulation-cell


Thermo/Baro-stat NHC parameters
===========================================================================
External temperature: 300.000000 [K]
Beta: 0.004009 [energy unit]
External Pressure: 0.000000 [Pa]


Thermostat chain-length: 3
Timescale parameter for thermostat: 0.150000 [ps]
Barostat chain-length:   3
Timescale parameter for barostat:   0.150000 [ps]

Number of Yoshida-Suzuki decomposition steps: 5
Number of respa steps: 5


Method and settings for electrostatics
===============================================================================
Dielectric constant of the medium : 1.000000
Charge from charge-equilibration: no
Ewald summation is used (exact solution of a periodic system)
Relative precision                : 1e-08
Alpha convergence parameter       : 0.317887
kvec (x,y,z)                      : 6 6 6


CFC-RXMC parameters
===========================================================================
Number of reactions: 0


Rattle parameters
===========================================================================
Distance constraint type: r^2-r^2_0
Bend angle constraint type: theta-theta_0
Dihedral angle constraint type: phi-phi_0
Inversion-bend angle constraint type: chi-chi_0
Out-of-plane distance constraint type: r-r_0


Spectra parameters
===========================================================================
Compute normal modes: no


Minimization parameters
===========================================================================
Generalized coordinates are: Cartesian center-of-mass, elements of the orientational matrix p1,p2,p3 and strain
Potential derivatives are evaluated: analytically
Translation of the system is removed from the generalized Hessian: no
Rotation of the system is removed from the generalized Hessian: no
Maximum step-length: 0.3
Convergence factor: 1
Maximum number of minimization steps: 10000
Use gradients in the line-minimizations: yes
RMS gradient tolerance: 1e-06
Maximum gradient tolerance: 1e-06

Distance constraints: 0
Angle constraints: 0
Dihedral constraints: 0

Improper dihedral constraints: 0

Inversion-bend constraints: 0

Out-of-plane constraints: 0

Harmonic distance constraints: 0
Harmonic angle constraints: 0
Harmonic dihedral constraints: 0

Dihedral mid-point measurements: 0

Number of fixed framework atoms: 0  (active: 240)
fixed atom-list: 
Number of active framework atoms: 240  (fixed: 0)
active atom-list: 

Fixed adsorbate atoms:  
Fixed adsorbate groups (center-of-mass):  
Fixed adsorbate groups (orientation):  

Fixed cation atoms:  
Fixed cation groups (center-of-mass):  
Fixed cation groups (orientation):  


dcTST parameters
===========================================================================
Free energy profiles computed: no
Free energy profiles written every 5000 cycles
Free energy mapping: mapped to a,b,c-coordinates
BarrierPosition:       0.0000000000       0.0000000000       0.0000000000
BarrierNormal:         0.0000000000       0.0000000000       0.0000000000
Start with a molecule on top of the barrier: no
Maximum distance to barrier (e.g. distance to minumum free energy):       0.0000000000 [A]
Maximum trajectory time:      10.0000000000 [ps]
Each configuration is used with 5 different initial velocities


Cbmc parameters
===========================================================================
Biasing method: using only the VDW part
Number of trial positions:                             10
Number of trial positions coupled Torsion-selection:   100
Number of trial position for the first bead:           10
Number of trial moves per open bead:                   150
Target acceptance ratio small-mc scheme:               0.400000
Energy overlap criteria:                               100000
Minimal Rosenbluth factor:                             1e-150


Pseudo atoms: 9
===========================================================================
Pseudo Atom[   0] Name UNIT     Oxidation: +0       Element: -    pdb-name: H    Scat. Types:   0   1 Mass=1.000000000  B-factor:1.000   
                 Charge=1.000000000          Polarization=0.000000000  [A^3] (considered a charged atom and no polarization)  Interactions:  no
                 Anisotropic factor:    0.000 [-] (Relative), Radius:    1.000 [A], Framework-atom:  no
Pseudo Atom[   1] Name O        Oxidation: +0       Element: O    pdb-name: O    Scat. Types:   9   8 Mass=15.799400000 B-factor:1.000   
                 Charge=0.869020000          Polarization=0.000000000  [A^3] (considered a charged atom and no polarization)  Interactions:  no
                 Anisotropic factor:    0.000 [-] (Relative), Radius:    0.680 [A], Framework-atom: yes (charge from pseudo-atoms file)
Pseudo Atom[   2] Name Oa       Oxidation: +0       Element: O    pdb-name: O    Scat. Types:   9   8 Mass=15.799400000 B-factor:1.000   
                 Charge=0.869020000          Polarization=0.000000000  [A^3] (considered a charged atom and no polarization)  Interactions:  no
                 Anisotropic factor:    0.000 [-] (Relative), Radius:    0.680 [A], Framework-atom:  no
Pseudo Atom[   3] Name shO      Oxidation: +0       Element: O    pdb-name: O    Scat. Types:   9   8 Mass=0.200000000  B-factor:1.000   
                 Charge=-2.869020000         Polarization=0.000000000  [A^3] (considered a charged atom and no polarization)  Interactions: yes
                 Anisotropic factor:    0.000 [-] (Relative), Radius:    0.000 [A], Framework-atom:  no
Pseudo Atom[   4] Name shOa     Oxidation: +0       Element: O    pdb-name: O    Scat. Types:   9   8 Mass=0.200000000  B-factor:1.000   
                 Charge=-2.869020000         Polarization=0.000000000  [A^3] (considered a charged atom and no polarization)  Interactions: yes
                 Anisotropic factor:    0.000 [-] (Relative), Radius:    0.000 [A], Framework-atom:  no
Pseudo Atom[   5] Name Mg       Oxidation: +0       Element: Mg   pdb-name: Mg   Scat. Types:  13  12 Mass=24.305000000 B-factor:1.000   
                 Charge=2.000000000          Polarization=0.000000000  [A^3] (considered a charged atom and no polarization)  Interactions: yes
                 Anisotropic factor:    0.000 [-] (Relative), Radius:    1.180 [A], Framework-atom:  no
Pseudo Atom[   6] Name P        Oxidation: +0       Element: p    pdb-name: P    Scat. Types:  16  15 Mass=30.973762000 B-factor:1.000   
                 Charge=5.000000000          Polarization=0.000000000  [A^3] (considered a charged atom and no polarization)  Interactions: yes
                 Anisotropic factor:    0.000 [-] (Relative), Radius:    1.180 [A], Framework-atom:  no
Pseudo Atom[   7] Name Si       Oxidation: +0       Element: Si   pdb-name: Si   Scat. Types:  15  14 Mass=28.085500000 B-factor:1.000   
                 Charge=4.000000000          Polarization=0.000000000  [A^3] (considered a charged atom and no polarization)  Interactions: yes
                 Anisotropic factor:    0.000 [-] (Relative), Radius:    1.180 [A], Framework-atom: yes (charge from pseudo-atoms file)
Pseudo Atom[   8] Name Al       Oxidation: +0       Element: Al   pdb-name: Al   Scat. Types:  14  13 Mass=26.981538600 B-factor:1.000   
                 Charge=3.000000000          Polarization=0.000000000  [A^3] (considered a charged atom and no polarization)  Interactions: yes
                 Anisotropic factor:    0.000 [-] (Relative), Radius:    1.180 [A], Framework-atom:  no


Forcefield: local
===========================================================================
CutOff VDW : 12.000000 (144.000000)
CutOff VDW switching on: 10.800000 (116.640000)
CutOff charge-charge : 12.000000 (144.000000)
CutOff charge-charge switching on: 7.800000 (60.840000)
CutOff charge-bonddipole : 12.000000 (144.000000)
CutOff charge-bondipole switching on: 8.400000 (70.560000)
CutOff bonddipole-bonddipole : 12.000000 (144.000000)
CutOff bonddipole-bondipole switching on: 9.000000 (81.000000)
Polarization is neglected
All potentials are shifted to zero at the Cutoff

No general mixing rule: all cross term specified individualy
0 cross terms are overwritten using the individual mixing rules from the file 'force_field_mixing_rules.def'
and then 11 terms are overwritten using the specific interactions from the file 'force_field.def'

The force field and all the interactions:
    shO -     shO [BUCKINGHAM] p_0/k_B: 264165308.49759 [K], p_1:  6.71141 [A^-1], p_2/k_B: 323514.32817 [K A^6], shift/k_B: -0.10834 [K]
    shO -    shOa [BUCKINGHAM] p_0/k_B: 264165308.49759 [K], p_1:  6.71141 [A^-1], p_2/k_B: 323522.43171 [K A^6], shift/k_B: -0.10835 [K]
    shO -      Mg [BUCKINGHAM] p_0/k_B: 10984877.43221 [K], p_1:  3.14337 [A^-1], p_2/k_B:  0.00000 [K A^6], shift/k_B:  0.00000 [K]
    shO -       P [BUCKINGHAM] p_0/k_B: 10180855.14820 [K], p_1:  2.78242 [A^-1], p_2/k_B:  0.00000 [K A^6], shift/k_B:  0.00000 [K]
    shO -      Si [BUCKINGHAM] p_0/k_B: 14899125.31792 [K], p_1:  3.11993 [A^-1], p_2/k_B: 123722.52547 [K A^6], shift/k_B: -0.04143 [K]
    shO -      Al [BUCKINGHAM] p_0/k_B: 16945657.06900 [K], p_1:  3.34314 [A^-1], p_2/k_B:  0.00000 [K A^6], shift/k_B:  0.00000 [K]
   shOa -    shOa [BUCKINGHAM] p_0/k_B: 264165308.49759 [K], p_1:  6.71141 [A^-1], p_2/k_B: 323514.32817 [K A^6], shift/k_B: -0.10834 [K]
   shOa -      Mg [BUCKINGHAM] p_0/k_B: 10984877.43221 [K], p_1:  3.14337 [A^-1], p_2/k_B:  0.00000 [K A^6], shift/k_B:  0.00000 [K]
   shOa -       P [BUCKINGHAM] p_0/k_B: 10180855.14820 [K], p_1:  2.78242 [A^-1], p_2/k_B:  0.00000 [K A^6], shift/k_B:  0.00000 [K]
   shOa -      Si [BUCKINGHAM] p_0/k_B: 14899125.31792 [K], p_1:  3.11993 [A^-1], p_2/k_B: 123722.52547 [K A^6], shift/k_B: -0.04143 [K]
   shOa -      Al [BUCKINGHAM] p_0/k_B: 16945657.06900 [K], p_1:  3.34314 [A^-1], p_2/k_B:  0.00000 [K A^6], shift/k_B:  0.00000 [K]


MoleculeDefinitions:
===========================================================================
No components defined in 'simulation.input'


Framework Status
===========================================================================
Lowenstein's rule obeyed by framework
	Framework is modelled as: flexible using the model of local
	==================================================================================

	Number of Core/Shell definitions: 2
	--------------------------------------------
	Core/shell pair: core [O] and shell [shO] (96 pairs)
	Core/shell pair: core [Oa] and shell [shOa] (0 pairs)

	Number of Bonds definitions: 2
	--------------------------------------------
	Bond interaction between [O-shO] using bond-type: CORE_SHELL_SPRING (96 bonds)
	  args: 1   arg[0]=869410.688484 
	Bond interaction between [Oa-shOa] using bond-type: CORE_SHELL_SPRING (0 bonds)
	  args: 1   arg[0]=869410.688484 

	Number of Bend definitions: 3
	--------------------------------------------
	Bend interaction between [shO-Si-shO] using bend-type: CORE_SHELL_BEND (288 bends)
	  args: 2   arg[0]=24337.465000 arg[1]=109.470000 
	Bend interaction between [shOa-Si-shO] using bend-type: CORE_SHELL_BEND (0 bends)
	  args: 2   arg[0]=24337.465000 arg[1]=109.470000 
	Bend interaction between [shOa-Al-shOa] using bend-type: CORE_SHELL_BEND (0 bends)
	  args: 2   arg[0]=24337.465000 arg[1]=109.470000 


	Number of core/shells:                           96
	Number of bonds:                                 96
	Number of bond-dipoles:                          0
	Number of bends:                                 288
	Number of Urey-Bradleys:                         0
	Number of Inversion bends:                       0
	Number of Torsions:                              0
	Number of Improper Torsions:                     0
	Number of Out-of-planes:                         0
	Number of bond-bond cross terms:                 0
	Number of bond-bend cross terms:                 0
	Number of bend-bend cross terms:                 0
	Number of stretch-torsion cross terms:           0
	Number of bend-torsion cross terms:              0

	Number of charges:                               144
	Number of bonddipoles:                           0

	Number of Intra VDW:                             431784
	Number of Intra Coulomb charge-charge:           431784
	Number of Intra Coulomb charge-bonddipole:       0
	Number of Intra Coulomb bonddipoles:             0
	Number of excluded Intra VDW:                    96
	Number of excluded intra charge-charge:          96
	Number of excluded intra charge-bonddipole:      0
	Number of excluded intra bonddipole-bonddipole:  0


	Number of 1-2 intra-framework pairs: 453
	Number of 1-3 intra-framework pairs: 1542
	Number of 1-4 intra-framework pairs: 2793
	Number of 1-2,1-3 intra-framework pairs: 1569
	Number of 1-2,1-3,1-4 intra-framework pairs: 2796
	Bond interactions are removed (excluded from VDW and Coulomb interactions)
	Bend interactions are *included* in the VDW and Coulomb interactions
	Torsion interactions are *included* in the VDW and Coulomb interactions
	Remove12NeighboursFromVDWInteraction no
	Remove13NeighboursFromVDWInteraction no
	Remove14NeighboursFromVDWInteraction no
	Remove12NeighboursFromChargeChargeInteraction no
	Remove13NeighboursFromChargeChargeInteraction no
	Remove14NeighboursFromChargeChargeInteraction no
	Remove11NeighboursFromChargeBondDipoleInteraction no
	Remove12NeighboursFromChargeBondDipoleInteraction no
	Remove13NeighboursFromChargeBondDipoleInteraction no
	Remove14NeighboursFromChargeBondDipoleInteraction no
	Remove12NeighboursFromBondDipoleBondDipoleInteraction no
	Remove13NeighboursFromBondDipoleBondDipoleInteraction no
	Remove14NeighboursFromBondDipoleBondDipoleInteraction no
	InternalFrameworkLennardJonesInteractions yes


System Properties
===========================================================================
Unit cell size: 15.031000 15.031000 15.031000
Cell angles (radians)  alpha: 1.570796 beta: 1.570796 gamma: 1.570796
Cell angles (degrees)  alpha: 90.000000 beta: 90.000000 gamma: 90.000000
Number of unitcells [a]: 1
Number of unitcells [b]: 1
Number of unitcells [c]: 1

TRICLINIC Boundary conditions: alpha!=90 or beta!=90 or gamma!=90

Cartesian axis A is collinear with crystallographic axis a
Cartesian axis B is collinear with (axb)xA
Cartesian axis C is collinear with (axb)

lengths of cell vectors:
 15.03100  15.03100  15.03100
cosines of cell angles:
  0.00000   0.00000   0.00000
perpendicular cell widths:
 15.03100  15.03100  15.03100
volume of the cell:  3395.968274791001 (A^3)

Orthogonalization matrix Box
Transforms fractional coordinates abc into orthonormal Cartesian coordinates xyz
Deorthogonalization matrix InverseBox
Transforms orthonormal Cartesian coordinates xyz into fractional coordinates xyz

Box[0]:
	   15.031000000000     0.000000000000     0.000000000000
	    0.000000000000    15.031000000000     0.000000000000
	    0.000000000000     0.000000000000    15.031000000000

Inverse box[0]:
	    0.066529173042    -0.000000000000    -0.000000000000
	    0.000000000000     0.066529173042    -0.000000000000
	    0.000000000000     0.000000000000     0.066529173042


Unitcell box[0]:
	   15.031000000000     0.000000000000     0.000000000000
	    0.000000000000    15.031000000000     0.000000000000
	    0.000000000000     0.000000000000    15.031000000000

Unitcell inverse box[0]:
	    0.066529173042    -0.000000000000    -0.000000000000
	    0.000000000000     0.066529173042    -0.000000000000
	    0.000000000000     0.000000000000     0.066529173042

lengths of cell vectors (inverse box):
  0.06653   0.06653   0.06653
cosines of cell angles (inverse box):
 -0.00000  -0.00000  -0.00000
perpendicular cell widths (inverse):
  0.06653   0.06653   0.06653
volume of the cell:  3395.968274791001 (A^3)

Number of Replica Cells: 2 2 2
Replica Box:
	   30.062000000000     0.000000000000     0.000000000000
	    0.000000000000    30.062000000000     0.000000000000
	    0.000000000000     0.000000000000    30.062000000000

Shift of the Replica cells:
	[cell:  0]     0.000000000000     0.000000000000     0.000000000000
	[cell:  1]     0.000000000000     0.000000000000    15.031000000000
	[cell:  2]     0.000000000000    15.031000000000     0.000000000000
	[cell:  3]     0.000000000000    15.031000000000    15.031000000000
	[cell:  4]    15.031000000000     0.000000000000     0.000000000000
	[cell:  5]    15.031000000000     0.000000000000    15.031000000000
	[cell:  6]    15.031000000000    15.031000000000     0.000000000000
	[cell:  7]    15.031000000000    15.031000000000    15.031000000000

Framework is simulated as 'flexible'
Number of framework atoms: 240
Number of framework atoms in the unit cell: 144
Framework Mass:  2884.046399999976 [g/mol]
Framework Density:  1400.834168156120 [kg/m^3]    0.7091079796874 [cm^3/g]
Helium void fraction:    0.00000000
Available pore volume:    0.00000000 [A^3]    0.00000000 [cm^3/g]
Conversion factor from molecule/unit cell -> kmol/m^3: 0.488974, kmol/m^3 accesible pore volume: inf

Number Of Frameworks (per system): 1
----------------------------------------------------------------------
Framework name: RHO
Citation:
	author name:        'L.B. McCusker and Ch. Baerlocher'
	title:              'The effect of dehydration upon the crystal structure of zeolite rho'
	journal abbrev.:    'J. Solid State Chem.'
	first page:         812
	last page:          822
	year:               1984
	special details:    'Proceedings of the 6th International Zeolite Conference, Reno 1983'
Space group: 229
	Identifier: 529
	short international Hermann-Mauguin symbol: I m -3 m
	long international Hermann-Mauguin symbol: I 4/m -3 2/m
	Hall symbol: -I 4 2 3
	Number of lattice translations: 2 [ (0,0,0) (0.5,0.5,0.5) ]
	acentric/centric: acentric
	chiral: yes
	enantiomorphic: no
	number of operators: 96
		'x,y,z'
		'-x,-y,z'
		'-x,y,-z'
		'x,-y,-z'
		'z,x,y'
		'z,-x,-y'
		'-z,-x,y'
		'-z,x,-y'
		'y,z,x'
		'-y,z,-x'
		'y,-z,-x'
		'-y,-z,x'
		'y,x,-z'
		'-y,-x,-z'
		'y,-x,z'
		'-y,x,z'
		'x,z,-y'
		'-x,z,y'
		'-x,-z,-y'
		'x,-z,y'
		'z,y,-x'
		'z,-y,x'
		'-z,y,x'
		'-z,-y,-x'
		'-x,-y,-z'
		'x,y,-z'
		'x,-y,z'
		'-x,y,z'
		'-z,-x,-y'
		'-z,x,y'
		'z,x,-y'
		'z,-x,y'
		'-y,-z,-x'
		'y,-z,x'
		'-y,z,x'
		'y,z,-x'
		'-y,-x,z'
		'y,x,z'
		'-y,x,-z'
		'y,-x,-z'
		'-x,-z,y'
		'x,-z,-y'
		'x,z,y'
		'-x,z,-y'
		'-z,-y,x'
		'-z,y,-x'
		'z,-y,-x'
		'z,y,x'
		'x+1/2,y+1/2,z+1/2'
		'-x+1/2,-y+1/2,z+1/2'
		'-x+1/2,y+1/2,-z+1/2'
		'x+1/2,-y+1/2,-z+1/2'
		'z+1/2,x+1/2,y+1/2'
		'z+1/2,-x+1/2,-y+1/2'
		'-z+1/2,-x+1/2,y+1/2'
		'-z+1/2,x+1/2,-y+1/2'
		'y+1/2,z+1/2,x+1/2'
		'-y+1/2,z+1/2,-x+1/2'
		'y+1/2,-z+1/2,-x+1/2'
		'-y+1/2,-z+1/2,x+1/2'
		'y+1/2,x+1/2,-z+1/2'
		'-y+1/2,-x+1/2,-z+1/2'
		'y+1/2,-x+1/2,z+1/2'
		'-y+1/2,x+1/2,z+1/2'
		'x+1/2,z+1/2,-y+1/2'
		'-x+1/2,z+1/2,y+1/2'
		'-x+1/2,-z+1/2,-y+1/2'
		'x+1/2,-z+1/2,y+1/2'
		'z+1/2,y+1/2,-x+1/2'
		'z+1/2,-y+1/2,x+1/2'
		'-z+1/2,y+1/2,x+1/2'
		'-z+1/2,-y+1/2,-x+1/2'
		'-x+1/2,-y+1/2,-z+1/2'
		'x+1/2,y+1/2,-z+1/2'
		'x+1/2,-y+1/2,z+1/2'
		'-x+1/2,y+1/2,z+1/2'
		'-z+1/2,-x+1/2,-y+1/2'
		'-z+1/2,x+1/2,y+1/2'
		'z+1/2,x+1/2,-y+1/2'
		'z+1/2,-x+1/2,y+1/2'
		'-y+1/2,-z+1/2,-x+1/2'
		'y+1/2,-z+1/2,x+1/2'
		'-y+1/2,z+1/2,x+1/2'
		'y+1/2,z+1/2,-x+1/2'
		'-y+1/2,-x+1/2,z+1/2'
		'y+1/2,x+1/2,z+1/2'
		'-y+1/2,x+1/2,-z+1/2'
		'y+1/2,-x+1/2,-z+1/2'
		'-x+1/2,-z+1/2,y+1/2'
		'x+1/2,-z+1/2,-y+1/2'
		'x+1/2,z+1/2,y+1/2'
		'-x+1/2,z+1/2,-y+1/2'
		'-z+1/2,-y+1/2,x+1/2'
		'-z+1/2,y+1/2,-x+1/2'
		'z+1/2,-y+1/2,-x+1/2'
		'z+1/2,y+1/2,x+1/2'
Framework is simulated as 'flexible'
Shift: 0.000000 0.000000 0.000000
Number of framework atoms: 240
Number of asymmetric atoms: 3
Number of free framework atoms: 240
Number of fixed framework atoms: 0
Number of framework atoms in the unit cell: 144
Framework Mass:  2864.846399999994 [g/mol]
Framework Density:  1400.834168156120 [kg/m^3]
Framework has net charge: -0.000000
         largest charge : 4.000000
         smallest charge: -2.869020


Current Atom Status
===========================================================================
Number of framework atoms        : 240
Number of cations molecules      : 0
Number of adsorbate molecules    : 0
Pseudo Atoms    0 [    UNIT]:    0 atoms
Pseudo Atoms    1 [       O]:   96 atoms
Pseudo Atoms    2 [      Oa]:    0 atoms
Pseudo Atoms    3 [     shO]:   96 atoms
Pseudo Atoms    4 [    shOa]:    0 atoms
Pseudo Atoms    5 [      Mg]:    0 atoms
Pseudo Atoms    6 [       P]:    0 atoms
Pseudo Atoms    7 [      Si]:   48 atoms
Pseudo Atoms    8 [      Al]:    0 atoms


Current (initial full energy) Energy Status
===========================================================================

Internal energy:
Host stretch energy:                                       435536.78687440
Host UreyBradley energy:                                        0.00000000
Host bend energy:                                           57240.58972841
Host inversion-bend energy:                                     0.00000000
Host torsion energy:                                            0.00000000
Host improper torsion energy:                                   0.00000000
Host out-of-plane energy:                                       0.00000000
Host stretch/stretch energy:                                    0.00000000
Host bend/bend energy:                                          0.00000000
Host stretch/bend energy:                                       0.00000000
Host stretch/torsion energy:                                    0.00000000
Host bend/torsion energy:                                       0.00000000

Adsorbate stretch energy:                                       0.00000000
Adsorbate UreyBradley energy:                                   0.00000000
Adsorbate bend energy:                                          0.00000000
Adsorbate inversion-bend energy:                                0.00000000
Adsorbate torsion energy:                                       0.00000000
Adsorbate improper torsion energy:                              0.00000000
Adsorbate out-of-plane energy:                                  0.00000000
Adsorbate stretch/stretch energy:                               0.00000000
Adsorbate bend/bend energy:                                     0.00000000
Adsorbate stretch/bend energy:                                  0.00000000
Adsorbate stretch/torsion energy:                               0.00000000
Adsorbate bend/torsion energy:                                  0.00000000
Adsorbate intra VDW energy:                                     0.00000000
Adsorbate intra charge-charge Coulomb energy:                   0.00000000
Adsorbate intra charge-bonddipole Coulomb energy:               0.00000000
Adsorbate intra bonddipole-bonddipole Coulomb energy:           0.00000000

Cation stretch energy:                                          0.00000000
Cation UreyBradley energy:                                      0.00000000
Cation bend energy:                                             0.00000000
Cation inversion-bend energy:                                   0.00000000
Cation torsion energy:                                          0.00000000
Cation improper torsion energy:                                 0.00000000
Cation out-of-plane energy:                                     0.00000000
Cation stretch/stretch energy:                                  0.00000000
Cation bend/bend energy:                                        0.00000000
Cation stretch/bend energy:                                     0.00000000
Cation stretch/torsion energy:                                  0.00000000
Cation bend/torsion energy:                                     0.00000000
Cation intra VDW energy:                                        0.00000000
Cation intra charge-charge Coulomb energy:                      0.00000000
Cation intra charge-bonddipole Coulomb energy:                  0.00000000
Cation intra bonddipole-bonddipole Coulomb energy:              0.00000000

Host/Host energy:                                     -69850014.53036694
	Host/Host VDW energy:                                  14905428.90121196
	Host/Host Coulomb energy:                             -84755443.43157890
	Host/Host charge-charge Real energy:                  -50506886.05262639
	Host/Host charge-charge Fourier energy:               -34248557.37895251
	Host/Host charge-bonddipole Real energy:                      0.00000000
	Host/Host charge-bonddipole Fourier energy:                   0.00000000
	Host/Host bondipole-bonddipole Real energy:                   0.00000000
	Host/Host bondipole-bonddipole Fourier energy:                0.00000000

Host/Adsorbate energy:                                        0.00000000
	Host/Adsorbate VDW energy:                                    0.00000000
	Host/Adsorbate Coulomb energy:                                0.00000000
	Host/Adsorbate charge-charge Real energy:                     0.00000000
	Host/Adsorbate charge-charge Fourier energy:                  0.00000000
	Host/Adsorbate charge-bonddipole Real energy:                 0.00000000
	Host/Adsorbate charge-bonddipole Fourier energy:              0.00000000
	Host/Adsorbate bondipole-bonddipole Real energy:              0.00000000
	Host/Adsorbate bondipole-bonddipole Fourier energy:           0.00000000

Host/Cation energy:                                           0.00000000
	Host/Cation VDW energy:                                       0.00000000
	Host/Cation Coulomb energy:                                   0.00000000
	Host/Cation charge-charge Real energy:                        0.00000000
	Host/Cation charge-charge Fourier energy:                     0.00000000
	Host/Cation charge-bonddipole Real energy:                    0.00000000
	Host/Cation charge-bonddipole Fourier energy:                 0.00000000
	Host/Cation bondipole-bonddipole Real energy:                 0.00000000
	Host/Cation bondipole-bonddipole Fourier energy:              0.00000000

Adsorbate/Adsorbate energy:                                        0.00000000
	Adsorbate/Adsorbate VDW energy:                                    0.00000000
	Adsorbate/Adsorbate Coulomb energy:                                0.00000000
	Adsorbate/Adsorbate charge-charge Real energy:                     0.00000000
	Adsorbate/Adsorbate charge-charge Fourier energy:                  0.00000000
	Adsorbate/Adsorbate charge-bonddipole Real energy:                 0.00000000
	Adsorbate/Adsorbate charge-bonddipole Fourier energy:              0.00000000
	Adsorbate/Adsorbate bondipole-bonddipole Real energy:              0.00000000
	Adsorbate/Adsorbate bondipole-bonddipole Fourier energy:           0.00000000

Adsorbate/Cation energy:                                           0.00000000
	Adsorbate/Cation VDW energy:                                       0.00000000
	Adsorbate/Cation Coulomb energy:                                   0.00000000
	Adsorbate/Cation charge-charge Real energy:                        0.00000000
	Adsorbate/Cation charge-charge Fourier energy:                     0.00000000
	Adsorbate/Cation charge-bonddipole Real energy:                    0.00000000
	Adsorbate/Cation charge-bonddipole Fourier energy:                 0.00000000
	Adsorbate/Cation bondipole-bonddipole Real energy:                 0.00000000
	Adsorbate/Cation bondipole-bonddipole Fourier energy:              0.00000000

Cation/Cation energy:                                           0.00000000
	Cation/Cation VDW energy:                                       0.00000000
	Cation/Cation Coulomb energy:                                   0.00000000
	Cation/Cation charge-charge Real energy:                        0.00000000
	Cation/Cation charge-charge Fourier energy:                     0.00000000
	Cation/Cation charge-bonddipole Real energy:                    0.00000000
	Cation/Cation charge-bonddipole Fourier energy:                 0.00000000
	Cation/Cation bondipole-bonddipole Real energy:                 0.00000000
	Cation/Cation bondipole-bonddipole Fourier energy:              0.00000000

Polarization energy:
	Host polarization energy:                                     0.00000000
	Adsorbate polarization energy:                                0.00000000
	Cation polarization energy:                                   0.00000000
	Host back-polarization energy:                                     0.00000000
	Adsorbate back-polarization energy:                                0.00000000
	Cation back-polarization energy:                                   0.00000000

Tail-correction energy:                                       0.00000000

Distance constraints energy:                                  0.00000000
Angle constraints energy:                                     0.00000000
Dihedral constraints energy:                                  0.00000000
Inversion-bend constraints energy:                            0.00000000
Out-of-plane distance constraints energy:                     0.00000000
Exclusion constraints energy:                                 0.00000000

===================================================================
Total energy: -69357237.153764128685
	Total Van der Waals: 14905428.901212
	Total Coulomb: -84755443.431579

	Total Polarization: 0.000000







+++++++++++++++++++++++++++++++++++++++++++++++++++++++++++++++++++++++++
Starting simulation
+++++++++++++++++++++++++++++++++++++++++++++++++++++++++++++++++++++++++

Total number of variables used in the minimization: 721
Number of cell-variables used in the minimization: 1
Total number of variables used for generalized coordinates in the minimization: 720
Total number of variables used for positions in the minimization: 720
Total number of variables used for orientation in the minimization: 0

Minimization initial volume:    3395.9682747910 [A^3]
Minimization initial energy: -69357237.1537640244 [K]
Minimization initial strain:       0.0000000000 [-]
Minimization initial box:      15.0310000000       0.0000000000       0.0000000000[-]
                                0.0000000000      15.0310000000       0.0000000000[-]
                                0.0000000000       0.0000000000      15.0310000000[-]

Beginning Baker minimization:
-----------------------------
Computing generalized Hessian matrix
Computing eigenvalues and vectors
Shifting parameter: -1816052.8256042879 Lowest eigenvalue:  -48102.8256042880
Iteration: 0 Energy: -69357237.1537640244 Volume:    3395.9682747910 RMS gradient: 11842.9  Max gradient: 8.19895e+06 Number of negative eigenvalues: 20 Number of zero eigenvalues: 3
      Box:      15.0310000000       0.0000000000       0.0000000000     Strain derivative: 2705132.7549547795  188739.0455759479   79246.9819897167
                 0.0000000000      15.0310000000       0.0000000000                         188739.0455759474 2782439.1901591825  188831.9721052359
                 0.0000000000       0.0000000000      15.0310000000                          79246.9819897153  188831.9721052363 2711380.0443177074
      Lengths:      15.0310000000      15.0310000000      15.0310000000, Angles:      90.0000000000      90.0000000000      90.0000000000

Computing generalized Hessian matrix
Computing eigenvalues and vectors
Shifting parameter: -1199077.2014204147 Lowest eigenvalue:  -10177.2014204147
Iteration: 1 Energy: -70240900.8555440009 Volume:    3224.0007541198 RMS gradient: 6554.84  Max gradient: 4.34881e+06 Number of negative eigenvalues: 9 Number of zero eigenvalues: 3
      Box:      14.7728757424       0.0000000000       0.0000000000     Strain derivative: 1434774.7765894786  113503.2706900074   44779.8601583810
                 0.0000000000      14.7728757424       0.0000000000                         113503.2706900090 1480148.1736932879  114701.4525194376
                 0.0000000000       0.0000000000      14.7728757424                          44779.8601583802  114701.4525194368 1433884.4136879318
      Lengths:      14.7728757424      14.7728757424      14.7728757424, Angles:      90.0000000000      90.0000000000      90.0000000000

Computing generalized Hessian matrix
Computing eigenvalues and vectors
Shifting parameter: -730577.8292289107 Lowest eigenvalue:     602.2655893538
Iteration: 2 Energy: -70829387.8961796761 Volume:    3145.4697705380 RMS gradient: 3666.75  Max gradient: 2.28422e+06 Number of negative eigenvalues: 0 Number of zero eigenvalues: 3
      Box:      14.6519413620       0.0000000000       0.0000000000     Strain derivative:  757325.2271314856   58144.4870801009   20931.3941184455
                 0.0000000000      14.6519413620       0.0000000000                          58144.4870801010  778624.1806309777   60124.3303912409
                 0.0000000000       0.0000000000      14.6519413620                          20931.3941184455   60124.3303912415  748271.1409995676
      Lengths:      14.6519413620      14.6519413620      14.6519413620, Angles:      90.0000000000      90.0000000000      90.0000000000

Computing generalized Hessian matrix
Computing eigenvalues and vectors
Shifting parameter: -367137.4556657980 Lowest eigenvalue:    1593.5069667993
Iteration: 3 Energy: -71208415.0685638636 Volume:    3106.7321437165 RMS gradient: 1937.89  Max gradient: 1.11458e+06 Number of negative eigenvalues: 0 Number of zero eigenvalues: 3
      Box:      14.5915447129       0.0000000000       0.0000000000     Strain derivative:  373840.1892497049   22354.8799539957    6744.2221582975
                 0.0000000000      14.5915447129       0.0000000000                          22354.8799539953  380679.8081307318   24813.3045965621
                 0.0000000000       0.0000000000      14.5915447129                           6744.2221582967   24813.3045965626  360059.3397387228
      Lengths:      14.5915447129      14.5915447129      14.5915447129, Angles:      90.0000000000      90.0000000000      90.0000000000

Computing generalized Hessian matrix
Computing eigenvalues and vectors
Shifting parameter: -155850.6107426587 Lowest eigenvalue:    1665.8286288543
Iteration: 4 Energy: -71410048.1338859200 Volume:    3095.4396062701 RMS gradient: 923.845  Max gradient: 495804 Number of negative eigenvalues: 0 Number of zero eigenvalues: 3
      Box:      14.5738438397       0.0000000000       0.0000000000     Strain derivative:  169422.9445388751    5409.4520073596    1240.9121812993
                 0.0000000000      14.5738438397       0.0000000000                           5409.4520073588  170740.9570358898    7839.7141085687
                 0.0000000000       0.0000000000      14.5738438397                           1240.9121812993    7839.7141085688  155640.0501468837
      Lengths:      14.5738438397      14.5738438397      14.5738438397, Angles:      90.0000000000      90.0000000000      90.0000000000

Computing generalized Hessian matrix
Computing eigenvalues and vectors
Shifting parameter:  -83221.4041740946 Lowest eigenvalue:    1425.9815898651
Iteration: 5 Energy: -71490754.1768267006 Volume:    3110.5456558114 RMS gradient: 495.895  Max gradient: 265281 Number of negative eigenvalues: 0 Number of zero eigenvalues: 3
      Box:      14.5975126428       0.0000000000       0.0000000000     Strain derivative:   92227.7152252686     786.2965297290     294.0945261209
                 0.0000000000      14.5975126428       0.0000000000                            786.2965297292   92405.9193137451    2714.1372472028
                 0.0000000000       0.0000000000      14.5975126428                            294.0945261203    2714.1372472027   80647.7176216716
      Lengths:      14.5975126428      14.5975126428      14.5975126428, Angles:      90.0000000000      90.0000000000      90.0000000000

Computing generalized Hessian matrix
Computing eigenvalues and vectors
Shifting parameter:  -51134.4834890198 Lowest eigenvalue:    1162.6001955528
Iteration: 6 Energy: -71531170.1355685294 Volume:    3135.6534563457 RMS gradient: 314.467  Max gradient: 178075 Number of negative eigenvalues: 0 Number of zero eigenvalues: 3
      Box:      14.6366836582       0.0000000000       0.0000000000     Strain derivative:   62506.1695470350    -474.8327849617     165.1089441340
                 0.0000000000      14.6366836582       0.0000000000                           -474.8327849617   62424.1909516513     950.8078481106
                 0.0000000000       0.0000000000      14.6366836582                            165.1089441338     950.8078481106   53144.3209789490
      Lengths:      14.6366836582      14.6366836582      14.6366836582, Angles:      90.0000000000      90.0000000000      90.0000000000

Computing generalized Hessian matrix
Computing eigenvalues and vectors
Shifting parameter:  -29722.1372076510 Lowest eigenvalue:     898.6423375707
Iteration: 7 Energy: -71556390.3086525202 Volume:    3163.0898535788 RMS gradient: 214.788  Max gradient: 131495 Number of negative eigenvalues: 0 Number of zero eigenvalues: 3
      Box:      14.6792491913       0.0000000000       0.0000000000     Strain derivative:   46255.6966523580    -828.4279840781     113.2604705650
                 0.0000000000      14.6792491913       0.0000000000                           -828.4279840777   46170.9862551405     154.1282402495
                 0.0000000000       0.0000000000      14.6792491913                            113.2604705654     154.1282402490   39067.9410545536
      Lengths:      14.6792491913      14.6792491913      14.6792491913, Angles:      90.0000000000      90.0000000000      90.0000000000

Computing generalized Hessian matrix
Computing eigenvalues and vectors
Shifting parameter:  -13731.9290380603 Lowest eigenvalue:     638.3105873119
Iteration: 8 Energy: -71572114.2182949483 Volume:    3190.2031621411 RMS gradient: 148.321  Max gradient: 97679.5 Number of negative eigenvalues: 0 Number of zero eigenvalues: 3
      Box:      14.7210723471       0.0000000000       0.0000000000     Strain derivative:   34165.8457716100    -768.5315607068      59.9801047281
                 0.0000000000      14.7210723471       0.0000000000                           -768.5315607069   34258.8864678489    -187.4476919811
                 0.0000000000       0.0000000000      14.7210723471                             59.9801047282    -187.4476919814   29254.7647825733
      Lengths:      14.7210723471      14.7210723471      14.7210723471, Angles:      90.0000000000      90.0000000000      90.0000000000

Computing generalized Hessian matrix
Computing eigenvalues and vectors
Shifting parameter:   -3584.4336606445 Lowest eigenvalue:     400.8156559752
Iteration: 9 Energy: -71580294.7739536017 Volume:    3213.9256899389 RMS gradient: 92.5867  Max gradient: 64526 Number of negative eigenvalues: 0 Number of zero eigenvalues: 3
      Box:      14.7574711781       0.0000000000       0.0000000000     Strain derivative:   22193.8216686526    -433.6936273667      53.8265761102
                 0.0000000000      14.7574711781       0.0000000000                           -433.6936273659   22574.7904729909    -200.5856300317
                 0.0000000000       0.0000000000      14.7574711781                             53.8265761103    -200.5856300322   19757.4198882478
      Lengths:      14.7574711781      14.7574711781      14.7574711781, Angles:      90.0000000000      90.0000000000      90.0000000000

Computing generalized Hessian matrix
Computing eigenvalues and vectors
Shifting parameter:    -272.2213622438 Lowest eigenvalue:     277.2569228474
Iteration: 10 Energy: -71582652.5898726285 Volume:    3225.0313307271 RMS gradient: 40.7361  Max gradient: 29239.8 Number of negative eigenvalues: 0 Number of zero eigenvalues: 3
      Box:      14.7744496625       0.0000000000       0.0000000000     Strain derivative:    9749.5799093159     -49.0301050802     109.0503862408
                 0.0000000000      14.7744496625       0.0000000000                            -49.0301050800   10126.1528875088       6.3675687632
                 0.0000000000       0.0000000000      14.7744496625                            109.0503862411       6.3675687630    9364.0770481463
      Lengths:      14.7744496625      14.7744496625      14.7744496625, Angles:      90.0000000000      90.0000000000      90.0000000000

Computing generalized Hessian matrix
Computing eigenvalues and vectors
Shifting parameter:      -1.1530710096 Lowest eigenvalue:     281.5779761225
Iteration: 11 Energy: -71582823.4348154217 Volume:    3222.8522216074 RMS gradient: 4.52489  Max gradient: 3256.23 Number of negative eigenvalues: 0 Number of zero eigenvalues: 3
      Box:      14.7711212822       0.0000000000       0.0000000000     Strain derivative:    1102.6625963866       0.3440809623      21.6381508296
                 0.0000000000      14.7711212822       0.0000000000                              0.3440809620    1102.5160072613      13.8837153103
                 0.0000000000       0.0000000000      14.7711212822                             21.6381508293      13.8837153101    1051.0489693059
      Lengths:      14.7711212822      14.7711212822      14.7711212822, Angles:      90.0000000000      90.0000000000      90.0000000000

Computing generalized Hessian matrix
Computing eigenvalues and vectors
Shifting parameter:      -0.0004622159 Lowest eigenvalue:     281.2312890063
Iteration: 12 Energy: -71582824.1288642883 Volume:    3222.5932873155 RMS gradient: 0.161956  Max gradient: 116.724 Number of negative eigenvalues: 0 Number of zero eigenvalues: 3
      Box:      14.7707256852       0.0000000000       0.0000000000     Strain derivative:     -38.4562685509      -0.0104752096       0.4229420222
                 0.0000000000      14.7707256852       0.0000000000                             -0.0104752098     -38.5569209784       0.2940815358
                 0.0000000000       0.0000000000      14.7707256852                              0.4229420224       0.2940815363     -39.7111237967
      Lengths:      14.7707256852      14.7707256852      14.7707256852, Angles:      90.0000000000      90.0000000000      90.0000000000

Computing generalized Hessian matrix
Computing eigenvalues and vectors
Shifting parameter:      -0.0000001222 Lowest eigenvalue:     281.3659720554
Iteration: 13 Energy: -71582824.1291428953 Volume:    3222.5970420103 RMS gradient: 0.00110341  Max gradient: 0.792583 Number of negative eigenvalues: 0 Number of zero eigenvalues: 3
      Box:      14.7707314217       0.0000000000       0.0000000000     Strain derivative:       0.2720927070      -0.0001970683       0.0073260273
                 0.0000000000      14.7707314217       0.0000000000                             -0.0001970684       0.2702834413       0.0051044199
                 0.0000000000       0.0000000000      14.7707314217                              0.0073260270       0.0051044195       0.2502078414
      Lengths:      14.7707314217      14.7707314217      14.7707314217, Angles:      90.0000000000      90.0000000000      90.0000000000

Computing generalized Hessian matrix
Computing eigenvalues and vectors
Shifting parameter:      -0.0000000000 Lowest eigenvalue:     281.3660378298
Iteration: 14 Energy: -71582824.1291430593 Volume:    3222.5969757428 RMS gradient: 4.96865e-05  Max gradient: 0.0358105 Number of negative eigenvalues: 0 Number of zero eigenvalues: 3
      Box:      14.7707313205       0.0000000000       0.0000000000     Strain derivative:      -0.0117990706      -0.0000034176       0.0001268608
                 0.0000000000      14.7707313205       0.0000000000                             -0.0000034182      -0.0118303774       0.0000883920
                 0.0000000000       0.0000000000      14.7707313205                              0.0001268612       0.0000883920      -0.0121786413
      Lengths:      14.7707313205      14.7707313205      14.7707313205, Angles:      90.0000000000      90.0000000000      90.0000000000

Computing generalized Hessian matrix
Computing eigenvalues and vectors
Shifting parameter:      -0.0000000000 Lowest eigenvalue:     281.3660788342
Iteration: 15 Energy: -71582824.1291415542 Volume:    3222.5969769105 RMS gradient: 3.50883e-07  Max gradient: 0.000252137 Number of negative eigenvalues: 0 Number of zero eigenvalues: 3
      Box:      14.7707313223       0.0000000000       0.0000000000     Strain derivative:       0.0000860122      -0.0000000512       0.0000021884
                 0.0000000000      14.7707313223       0.0000000000                             -0.0000000520       0.0000856703       0.0000015441
                 0.0000000000       0.0000000000      14.7707313223                              0.0000021888       0.0000015453       0.0000787105
      Lengths:      14.7707313223      14.7707313223      14.7707313223, Angles:      90.0000000000      90.0000000000      90.0000000000

Computing generalized Hessian matrix
Computing eigenvalues and vectors
Shifting parameter:      -0.0000000000 Lowest eigenvalue:     281.3660788447
Iteration: 16 Energy: -71582824.1291417480 Volume:    3222.5969768900 RMS gradient: 1.21603e-08  Max gradient: 8.76259e-06 Number of negative eigenvalues: 0 Number of zero eigenvalues: 3
      Box:      14.7707313222       0.0000000000       0.0000000000     Strain derivative:      -0.0000036182      -0.0000000003       0.0000000327
                 0.0000000000      14.7707313222       0.0000000000                             -0.0000000008      -0.0000034472       0.0000000331
                 0.0000000000       0.0000000000      14.7707313222                              0.0000000339       0.0000000328      -0.0000042497
      Lengths:      14.7707313222      14.7707313222      14.7707313222, Angles:      90.0000000000      90.0000000000      90.0000000000

Computing generalized Hessian matrix
Computing eigenvalues and vectors
Shifting parameter:      -0.0000000000 Lowest eigenvalue:     281.3660788563
Iteration: 17 Energy: -71582824.1291408092 Volume:    3222.5969768902 RMS gradient: 2.06883e-10  Max gradient: 1.4768e-07 Number of negative eigenvalues: 0 Number of zero eigenvalues: 3
      Box:      14.7707313222       0.0000000000       0.0000000000     Strain derivative:      -0.0000003093       0.0000000032       0.0000000032
                 0.0000000000      14.7707313222       0.0000000000                              0.0000000029      -0.0000003710      -0.0000000009
                 0.0000000000       0.0000000000      14.7707313222                              0.0000000032      -0.0000000007      -0.0000010109
      Lengths:      14.7707313222      14.7707313222      14.7707313222, Angles:      90.0000000000      90.0000000000      90.0000000000

SUCCES: RMS Gradient tolerance 1e-06 reached (2.06883e-10)
        Max Gradient tolerance 1e-06 reached (1.4768e-07)


Variable vector:
================
x: 0 = 3.77678
x: 1 = 1.58003
x: 2 = 5.9778
x: 3 = 3.3406
x: 4 = 0.0224636
x: 5 = 5.73117
x: 6 = 2.48827
x: 7 = 2.49171
x: 8 = 5.56536
x: 9 = -1.53854
x: 10 = 3.78021
x: 11 = 5.9778
x: 12 = 0.0190267
x: 13 = 3.34403
x: 14 = 5.73117
x: 15 = -2.45022
x: 16 = 2.49171
x: 17 = 5.56536
x: 18 = -3.73872
x: 19 = -1.53511
x: 20 = 5.9778
x: 21 = -3.30254
x: 22 = 0.0224636
x: 23 = 5.73117
x: 24 = -2.45022
x: 25 = -2.44678
x: 26 = 5.56536
x: 27 = 1.5766
x: 28 = -3.73529
x: 29 = 5.9778
x: 30 = 0.0190267
x: 31 = -3.29911
x: 32 = 5.73117
x: 33 = 2.48827
x: 34 = -2.44678
x: 35 = 5.56536
x: 36 = 3.77678
x: 37 = -1.53511
x: 38 = -5.93806
x: 39 = 3.3406
x: 40 = 0.0224636
x: 41 = -5.69144
x: 42 = 2.48827
x: 43 = -2.44678
x: 44 = -5.52562
x: 45 = 1.5766
x: 46 = 3.78021
x: 47 = -5.93806
x: 48 = 0.0190267
x: 49 = 3.34403
x: 50 = -5.69144
x: 51 = 2.48827
x: 52 = 2.49171
x: 53 = -5.52562
x: 54 = -3.73872
x: 55 = 1.58003
x: 56 = -5.93806
x: 57 = -3.30254
x: 58 = 0.0224636
x: 59 = -5.69144
x: 60 = -2.45022
x: 61 = 2.49171
x: 62 = -5.52562
x: 63 = -1.53854
x: 64 = -3.73529
x: 65 = -5.93806
x: 66 = 0.0190267
x: 67 = -3.29911
x: 68 = -5.69144
x: 69 = -2.45022
x: 70 = -2.44678
x: 71 = -5.52562
x: 72 = 5.97696
x: 73 = 3.78021
x: 74 = 1.57744
x: 75 = 5.73033
x: 76 = 3.34403
x: 77 = 0.0198675
x: 78 = 5.56452
x: 79 = 2.49171
x: 80 = 2.48911
x: 81 = -3.73872
x: 82 = 5.98039
x: 83 = 1.57744
x: 84 = -3.30254
x: 85 = 5.73377
x: 86 = 0.0198675
x: 87 = -2.45022
x: 88 = 5.56795
x: 89 = 2.48911
x: 90 = -5.9389
x: 91 = -3.73529
x: 92 = 1.57744
x: 93 = -5.69228
x: 94 = -3.29911
x: 95 = 0.0198675
x: 96 = -5.52646
x: 97 = -2.44678
x: 98 = 2.48911
x: 99 = 3.77678
x: 100 = -5.93547
x: 101 = 1.57744
x: 102 = 3.3406
x: 103 = -5.68884
x: 104 = 0.0198675
x: 105 = 2.48827
x: 106 = -5.52303
x: 107 = 2.48911
x: 108 = 5.97696
x: 109 = -3.73529
x: 110 = -1.5377
x: 111 = 5.73033
x: 112 = -3.29911
x: 113 = 0.0198675
x: 114 = 5.56452
x: 115 = -2.44678
x: 116 = -2.44938
x: 117 = 3.77678
x: 118 = 5.98039
x: 119 = -1.5377
x: 120 = 3.3406
x: 121 = 5.73377
x: 122 = 0.0198675
x: 123 = 2.48827
x: 124 = 5.56795
x: 125 = -2.44938
x: 126 = -5.9389
x: 127 = 3.78021
x: 128 = -1.5377
x: 129 = -5.69228
x: 130 = 3.34403
x: 131 = 0.0198675
x: 132 = -5.52646
x: 133 = 2.49171
x: 134 = -2.44938
x: 135 = -3.73872
x: 136 = -5.93547
x: 137 = -1.5377
x: 138 = -3.30254
x: 139 = -5.68884
x: 140 = 0.0198675
x: 141 = -2.45022
x: 142 = -5.52303
x: 143 = -2.44938
x: 144 = 1.5766
x: 145 = 5.98039
x: 146 = 3.77762
x: 147 = 0.0190267
x: 148 = 5.73377
x: 149 = 3.34144
x: 150 = 2.48827
x: 151 = 5.56795
x: 152 = 2.48911
x: 153 = 1.5766
x: 154 = -5.93547
x: 155 = -3.73788
x: 156 = 0.0190267
x: 157 = -5.68884
x: 158 = -3.3017
x: 159 = 2.48827
x: 160 = -5.52303
x: 161 = -2.44938
x: 162 = 5.97696
x: 163 = 1.58003
x: 164 = -3.73788
x: 165 = 5.73033
x: 166 = 0.0224636
x: 167 = -3.3017
x: 168 = 5.56452
x: 169 = 2.49171
x: 170 = -2.44938
x: 171 = -1.53854
x: 172 = 5.98039
x: 173 = -3.73788
x: 174 = 0.0190267
x: 175 = 5.73377
x: 176 = -3.3017
x: 177 = -2.45022
x: 178 = 5.56795
x: 179 = -2.44938
x: 180 = -5.9389
x: 181 = -1.53511
x: 182 = -3.73788
x: 183 = -5.69228
x: 184 = 0.0224636
x: 185 = -3.3017
x: 186 = -5.52646
x: 187 = -2.44678
x: 188 = -2.44938
x: 189 = -1.53854
x: 190 = -5.93547
x: 191 = 3.77762
x: 192 = 0.0190267
x: 193 = -5.68884
x: 194 = 3.34144
x: 195 = -2.45022
x: 196 = -5.52303
x: 197 = 2.48911
x: 198 = 5.97696
x: 199 = -1.53511
x: 200 = 3.77762
x: 201 = 5.73033
x: 202 = 0.0224636
x: 203 = 3.34144
x: 204 = 5.56452
x: 205 = -2.44678
x: 206 = 2.48911
x: 207 = -5.9389
x: 208 = 1.58003
x: 209 = 3.77762
x: 210 = -5.69228
x: 211 = 0.0224636
x: 212 = 3.34144
x: 213 = -5.52646
x: 214 = 2.49171
x: 215 = 2.48911
x: 216 = -3.73872
x: 217 = -1.53511
x: 218 = -5.93806
x: 219 = 1.5766
x: 220 = -3.73529
x: 221 = -5.93806
x: 222 = 3.77678
x: 223 = 1.58003
x: 224 = -5.93806
x: 225 = -1.53854
x: 226 = 3.78021
x: 227 = -5.93806
x: 228 = -3.73872
x: 229 = 1.58003
x: 230 = 5.9778
x: 231 = -1.53854
x: 232 = -3.73529
x: 233 = 5.9778
x: 234 = 3.77678
x: 235 = -1.53511
x: 236 = 5.9778
x: 237 = 1.5766
x: 238 = 3.78021
x: 239 = 5.9778
x: 240 = -5.9389
x: 241 = -3.73529
x: 242 = -1.5377
x: 243 = 3.77678
x: 244 = -5.93547
x: 245 = -1.5377
x: 246 = 5.97696
x: 247 = 3.78021
x: 248 = -1.5377
x: 249 = -3.73872
x: 250 = 5.98039
x: 251 = -1.5377
x: 252 = -5.9389
x: 253 = 3.78021
x: 254 = 1.57744
x: 255 = -3.73872
x: 256 = -5.93547
x: 257 = 1.57744
x: 258 = 5.97696
x: 259 = -3.73529
x: 260 = 1.57744
x: 261 = 3.77678
x: 262 = 5.98039
x: 263 = 1.57744
x: 264 = -1.53854
x: 265 = -5.93547
x: 266 = -3.73788
x: 267 = -1.53854
x: 268 = 5.98039
x: 269 = 3.77762
x: 270 = -5.9389
x: 271 = -1.53511
x: 272 = 3.77762
x: 273 = 1.5766
x: 274 = -5.93547
x: 275 = 3.77762
x: 276 = 5.97696
x: 277 = 1.58003
x: 278 = 3.77762
x: 279 = 1.5766
x: 280 = 5.98039
x: 281 = -3.73788
x: 282 = -5.9389
x: 283 = 1.58003
x: 284 = -3.73788
x: 285 = 5.97696
x: 286 = -1.53511
x: 287 = -3.73788
x: 288 = 10.8561
x: 289 = 7.53796
x: 290 = 13.2467
x: 291 = 10.0038
x: 292 = 10.0072
x: 293 = 13.0809
x: 294 = 7.53453
x: 295 = 10.8595
x: 296 = 13.2467
x: 297 = 5.06528
x: 298 = 10.0072
x: 299 = 13.0809
x: 300 = 4.21296
x: 301 = 7.53796
x: 302 = 13.2467
x: 303 = 5.06528
x: 304 = 5.06872
x: 305 = 13.0809
x: 306 = 7.53453
x: 307 = 4.21639
x: 308 = 13.2467
x: 309 = 10.0038
x: 310 = 5.06872
x: 311 = 13.0809
x: 312 = 10.8561
x: 313 = 7.53796
x: 314 = 1.82406
x: 315 = 10.0038
x: 316 = 5.06872
x: 317 = 1.98988
x: 318 = 7.53453
x: 319 = 10.8595
x: 320 = 1.82406
x: 321 = 10.0038
x: 322 = 10.0072
x: 323 = 1.98988
x: 324 = 4.21296
x: 325 = 7.53796
x: 326 = 1.82406
x: 327 = 5.06528
x: 328 = 10.0072
x: 329 = 1.98988
x: 330 = 7.53453
x: 331 = 4.21639
x: 332 = 1.82406
x: 333 = 5.06528
x: 334 = 5.06872
x: 335 = 1.98988
x: 336 = 13.2458
x: 337 = 10.8595
x: 338 = 7.53537
x: 339 = 13.08
x: 340 = 10.0072
x: 341 = 10.0046
x: 342 = 4.21296
x: 343 = 13.2493
x: 344 = 7.53537
x: 345 = 5.06528
x: 346 = 13.0835
x: 347 = 10.0046
x: 348 = 1.82322
x: 349 = 4.21639
x: 350 = 7.53537
x: 351 = 1.98904
x: 352 = 5.06872
x: 353 = 10.0046
x: 354 = 10.8561
x: 355 = 1.82666
x: 356 = 7.53537
x: 357 = 10.0038
x: 358 = 1.99247
x: 359 = 10.0046
x: 360 = 13.2458
x: 361 = 4.21639
x: 362 = 7.53537
x: 363 = 13.08
x: 364 = 5.06872
x: 365 = 5.06612
x: 366 = 10.8561
x: 367 = 13.2493
x: 368 = 7.53537
x: 369 = 10.0038
x: 370 = 13.0835
x: 371 = 5.06612
x: 372 = 1.82322
x: 373 = 10.8595
x: 374 = 7.53537
x: 375 = 1.98904
x: 376 = 10.0072
x: 377 = 5.06612
x: 378 = 4.21296
x: 379 = 1.82666
x: 380 = 7.53537
x: 381 = 5.06528
x: 382 = 1.99247
x: 383 = 5.06612
x: 384 = 7.53453
x: 385 = 13.2493
x: 386 = 10.8569
x: 387 = 10.0038
x: 388 = 13.0835
x: 389 = 10.0046
x: 390 = 7.53453
x: 391 = 1.82666
x: 392 = 4.2138
x: 393 = 10.0038
x: 394 = 1.99247
x: 395 = 5.06612
x: 396 = 13.2458
x: 397 = 7.53796
x: 398 = 4.2138
x: 399 = 13.08
x: 400 = 10.0072
x: 401 = 5.06612
x: 402 = 7.53453
x: 403 = 13.2493
x: 404 = 4.2138
x: 405 = 5.06528
x: 406 = 13.0835
x: 407 = 5.06612
x: 408 = 1.82322
x: 409 = 7.53796
x: 410 = 4.2138
x: 411 = 1.98904
x: 412 = 5.06872
x: 413 = 5.06612
x: 414 = 7.53453
x: 415 = 1.82666
x: 416 = 10.8569
x: 417 = 5.06528
x: 418 = 1.99247
x: 419 = 10.0046
x: 420 = 13.2458
x: 421 = 7.53796
x: 422 = 10.8569
x: 423 = 13.08
x: 424 = 5.06872
x: 425 = 10.0046
x: 426 = 1.82322
x: 427 = 7.53796
x: 428 = 10.8569
x: 429 = 1.98904
x: 430 = 10.0072
x: 431 = 10.0046
x: 432 = 3.43734
x: 433 = 0.0224636
x: 434 = 5.78546
x: 435 = 2.53074
x: 436 = 2.53417
x: 437 = 5.6582
x: 438 = 0.0190267
x: 439 = 3.44078
x: 440 = 5.78546
x: 441 = -2.49268
x: 442 = 2.53417
x: 443 = 5.6582
x: 444 = -3.39929
x: 445 = 0.0224636
x: 446 = 5.78546
x: 447 = -2.49268
x: 448 = -2.48925
x: 449 = 5.6582
x: 450 = 0.0190267
x: 451 = -3.39585
x: 452 = 5.78546
x: 453 = 2.53074
x: 454 = -2.48925
x: 455 = 5.6582
x: 456 = 3.43734
x: 457 = 0.0224636
x: 458 = -5.74572
x: 459 = 2.53074
x: 460 = -2.48925
x: 461 = -5.61846
x: 462 = 0.0190267
x: 463 = 3.44078
x: 464 = -5.74572
x: 465 = 2.53074
x: 466 = 2.53417
x: 467 = -5.61846
x: 468 = -3.39929
x: 469 = 0.0224636
x: 470 = -5.74572
x: 471 = -2.49268
x: 472 = 2.53417
x: 473 = -5.61846
x: 474 = 0.0190267
x: 475 = -3.39585
x: 476 = -5.74572
x: 477 = -2.49268
x: 478 = -2.48925
x: 479 = -5.61846
x: 480 = 5.78462
x: 481 = 3.44078
x: 482 = 0.0198675
x: 483 = 5.65736
x: 484 = 2.53417
x: 485 = 2.53158
x: 486 = -3.39929
x: 487 = 5.78805
x: 488 = 0.0198675
x: 489 = -2.49268
x: 490 = 5.66079
x: 491 = 2.53158
x: 492 = -5.74656
x: 493 = -3.39585
x: 494 = 0.0198675
x: 495 = -5.6193
x: 496 = -2.48925
x: 497 = 2.53158
x: 498 = 3.43734
x: 499 = -5.74313
x: 500 = 0.0198675
x: 501 = 2.53074
x: 502 = -5.61587
x: 503 = 2.53158
x: 504 = 5.78462
x: 505 = -3.39585
x: 506 = 0.0198675
x: 507 = 5.65736
x: 508 = -2.48925
x: 509 = -2.49184
x: 510 = 3.43734
x: 511 = 5.78805
x: 512 = 0.0198675
x: 513 = 2.53074
x: 514 = 5.66079
x: 515 = -2.49184
x: 516 = -5.74656
x: 517 = 3.44078
x: 518 = 0.0198675
x: 519 = -5.6193
x: 520 = 2.53417
x: 521 = -2.49184
x: 522 = -3.39929
x: 523 = -5.74313
x: 524 = 0.0198675
x: 525 = -2.49268
x: 526 = -5.61587
x: 527 = -2.49184
x: 528 = 0.0190267
x: 529 = 5.78805
x: 530 = 3.43818
x: 531 = 2.53074
x: 532 = 5.66079
x: 533 = 2.53158
x: 534 = 0.0190267
x: 535 = -5.74313
x: 536 = -3.39844
x: 537 = 2.53074
x: 538 = -5.61587
x: 539 = -2.49184
x: 540 = 5.78462
x: 541 = 0.0224636
x: 542 = -3.39844
x: 543 = 5.65736
x: 544 = 2.53417
x: 545 = -2.49184
x: 546 = 0.0190267
x: 547 = 5.78805
x: 548 = -3.39844
x: 549 = -2.49268
x: 550 = 5.66079
x: 551 = -2.49184
x: 552 = -5.74656
x: 553 = 0.0224636
x: 554 = -3.39844
x: 555 = -5.6193
x: 556 = -2.48925
x: 557 = -2.49184
x: 558 = 0.0190267
x: 559 = -5.74313
x: 560 = 3.43818
x: 561 = -2.49268
x: 562 = -5.61587
x: 563 = 2.53158
x: 564 = 5.78462
x: 565 = 0.0224636
x: 566 = 3.43818
x: 567 = 5.65736
x: 568 = -2.48925
x: 569 = 2.53158
x: 570 = -5.74656
x: 571 = 0.0224636
x: 572 = 3.43818
x: 573 = -5.6193
x: 574 = 2.53417
x: 575 = 2.53158
x: 576 = 10.9528
x: 577 = 7.53796
x: 578 = 13.301
x: 579 = 10.0462
x: 580 = 10.0497
x: 581 = 13.1737
x: 582 = 7.53453
x: 583 = 10.9563
x: 584 = 13.301
x: 585 = 5.02282
x: 586 = 10.0497
x: 587 = 13.1737
x: 588 = 4.11621
x: 589 = 7.53796
x: 590 = 13.301
x: 591 = 5.02282
x: 592 = 5.02625
x: 593 = 13.1737
x: 594 = 7.53453
x: 595 = 4.11965
x: 596 = 13.301
x: 597 = 10.0462
x: 598 = 5.02625
x: 599 = 13.1737
x: 600 = 10.9528
x: 601 = 7.53796
x: 602 = 1.76978
x: 603 = 10.0462
x: 604 = 5.02625
x: 605 = 1.89704
x: 606 = 7.53453
x: 607 = 10.9563
x: 608 = 1.76978
x: 609 = 10.0462
x: 610 = 10.0497
x: 611 = 1.89704
x: 612 = 4.11621
x: 613 = 7.53796
x: 614 = 1.76978
x: 615 = 5.02282
x: 616 = 10.0497
x: 617 = 1.89704
x: 618 = 7.53453
x: 619 = 4.11965
x: 620 = 1.76978
x: 621 = 5.02282
x: 622 = 5.02625
x: 623 = 1.89704
x: 624 = 13.3001
x: 625 = 10.9563
x: 626 = 7.53537
x: 627 = 13.1729
x: 628 = 10.0497
x: 629 = 10.0471
x: 630 = 4.11621
x: 631 = 13.3036
x: 632 = 7.53537
x: 633 = 5.02282
x: 634 = 13.1763
x: 635 = 10.0471
x: 636 = 1.76894
x: 637 = 4.11965
x: 638 = 7.53537
x: 639 = 1.8962
x: 640 = 5.02625
x: 641 = 10.0471
x: 642 = 10.9528
x: 643 = 1.77237
x: 644 = 7.53537
x: 645 = 10.0462
x: 646 = 1.89963
x: 647 = 10.0471
x: 648 = 13.3001
x: 649 = 4.11965
x: 650 = 7.53537
x: 651 = 13.1729
x: 652 = 5.02625
x: 653 = 5.02366
x: 654 = 10.9528
x: 655 = 13.3036
x: 656 = 7.53537
x: 657 = 10.0462
x: 658 = 13.1763
x: 659 = 5.02366
x: 660 = 1.76894
x: 661 = 10.9563
x: 662 = 7.53537
x: 663 = 1.8962
x: 664 = 10.0497
x: 665 = 5.02366
x: 666 = 4.11621
x: 667 = 1.77237
x: 668 = 7.53537
x: 669 = 5.02282
x: 670 = 1.89963
x: 671 = 5.02366
x: 672 = 7.53453
x: 673 = 13.3036
x: 674 = 10.9537
x: 675 = 10.0462
x: 676 = 13.1763
x: 677 = 10.0471
x: 678 = 7.53453
x: 679 = 1.77237
x: 680 = 4.11706
x: 681 = 10.0462
x: 682 = 1.89963
x: 683 = 5.02366
x: 684 = 13.3001
x: 685 = 7.53796
x: 686 = 4.11706
x: 687 = 13.1729
x: 688 = 10.0497
x: 689 = 5.02366
x: 690 = 7.53453
x: 691 = 13.3036
x: 692 = 4.11706
x: 693 = 5.02282
x: 694 = 13.1763
x: 695 = 5.02366
x: 696 = 1.76894
x: 697 = 7.53796
x: 698 = 4.11706
x: 699 = 1.8962
x: 700 = 5.02625
x: 701 = 5.02366
x: 702 = 7.53453
x: 703 = 1.77237
x: 704 = 10.9537
x: 705 = 5.02282
x: 706 = 1.89963
x: 707 = 10.0471
x: 708 = 13.3001
x: 709 = 7.53796
x: 710 = 10.9537
x: 711 = 13.1729
x: 712 = 5.02625
x: 713 = 10.0471
x: 714 = 1.76894
x: 715 = 7.53796
x: 716 = 10.9537
x: 717 = 1.8962
x: 718 = 10.0497
x: 719 = 10.0471
x: 720 = -0.0173155




Gradient vector:
================
Gradient: 0 = -4.08988e-10
Gradient: 1 = -1.4028e-11
Gradient: 2 = 2.50067e-10
Gradient: 3 = -1.38959e-09
Gradient: 4 = -3.6774e-10
Gradient: 5 = -3.31568e-10
Gradient: 6 = -8.22638e-10
Gradient: 7 = -6.44036e-11
Gradient: 8 = -6.7223e-10
Gradient: 9 = -1.07591e-09
Gradient: 10 = -7.9095e-10
Gradient: 11 = 1.55793e-10
Gradient: 12 = -6.37047e-10
Gradient: 13 = -5.48653e-10
Gradient: 14 = 1.12874e-09
Gradient: 15 = -4.55032e-10
Gradient: 16 = -2.13902e-10
Gradient: 17 = -1.26192e-10
Gradient: 18 = -7.08655e-10
Gradient: 19 = -1.1697e-09
Gradient: 20 = 5.57345e-10
Gradient: 21 = 2.60911e-10
Gradient: 22 = -9.7983e-11
Gradient: 23 = 1.15381e-09
Gradient: 24 = -1.03154e-09
Gradient: 25 = 4.29225e-10
Gradient: 26 = -1.46088e-10
Gradient: 27 = 3.08745e-10
Gradient: 28 = 5.35145e-11
Gradient: 29 = 1.87513e-09
Gradient: 30 = -3.47975e-11
Gradient: 31 = 3.82897e-10
Gradient: 32 = 7.23105e-10
Gradient: 33 = 1.19087e-10
Gradient: 34 = -4.52189e-10
Gradient: 35 = 2.12367e-10
Gradient: 36 = -1.15505e-09
Gradient: 37 = -7.50278e-10
Gradient: 38 = -1.06463e-09
Gradient: 39 = -1.48907e-09
Gradient: 40 = 4.4147e-10
Gradient: 41 = -1.09662e-09
Gradient: 42 = -2.69097e-10
Gradient: 43 = 4.40366e-10
Gradient: 44 = 7.30211e-10
Gradient: 45 = 1.06661e-10
Gradient: 46 = 2.06257e-09
Gradient: 47 = -2.78577e-10
Gradient: 48 = -2.5835e-10
Gradient: 49 = -8.07631e-10
Gradient: 50 = 4.8351e-10
Gradient: 51 = 2.74213e-10
Gradient: 52 = -1.24567e-09
Gradient: 53 = 1.22247e-09
Gradient: 54 = 1.64011e-09
Gradient: 55 = -1.00522e-09
Gradient: 56 = -1.64653e-09
Gradient: 57 = 5.89694e-10
Gradient: 58 = -4.04691e-10
Gradient: 59 = 5.2745e-10
Gradient: 60 = -2.09695e-10
Gradient: 61 = -4.07681e-10
Gradient: 62 = -3.81078e-10
Gradient: 63 = -5.992e-10
Gradient: 64 = 1.75749e-10
Gradient: 65 = 5.03532e-11
Gradient: 66 = -2.95683e-10
Gradient: 67 = 6.35055e-10
Gradient: 68 = -4.81919e-10
Gradient: 69 = -8.77719e-10
Gradient: 70 = 1.66096e-10
Gradient: 71 = -5.32282e-10
Gradient: 72 = -4.7239e-10
Gradient: 73 = 3.8275e-11
Gradient: 74 = 7.33127e-10
Gradient: 75 = -8.65953e-10
Gradient: 76 = -1.36663e-09
Gradient: 77 = 5.71086e-11
Gradient: 78 = 4.502e-10
Gradient: 79 = 5.017e-10
Gradient: 80 = -6.11465e-10
Gradient: 81 = 1.40325e-09
Gradient: 82 = 1.8887e-09
Gradient: 83 = 9.34971e-10
Gradient: 84 = 4.28145e-10
Gradient: 85 = 5.49221e-10
Gradient: 86 = -1.09025e-10
Gradient: 87 = -2.33456e-10
Gradient: 88 = 1.48998e-09
Gradient: 89 = -9.65201e-11
Gradient: 90 = 1.52752e-10
Gradient: 91 = -4.48366e-10
Gradient: 92 = 5.95433e-10
Gradient: 93 = -5.13808e-10
Gradient: 94 = 5.14433e-10
Gradient: 95 = 3.18878e-11
Gradient: 96 = 5.93559e-10
Gradient: 97 = -6.40057e-11
Gradient: 98 = -8.94374e-10
Gradient: 99 = 1.14126e-09
Gradient: 100 = 1.07017e-09
Gradient: 101 = 1.73024e-10
Gradient: 102 = -5.24665e-10
Gradient: 103 = 4.38263e-11
Gradient: 104 = -3.11355e-10
Gradient: 105 = -4.40195e-10
Gradient: 106 = 7.36236e-10
Gradient: 107 = 1.24999e-10
Gradient: 108 = 1.37148e-09
Gradient: 109 = 2.09089e-09
Gradient: 110 = -1.1071e-09
Gradient: 111 = 9.87029e-10
Gradient: 112 = 1.32036e-09
Gradient: 113 = -3.98114e-11
Gradient: 114 = 4.07681e-10
Gradient: 115 = -7.36918e-10
Gradient: 116 = 7.8154e-10
Gradient: 117 = -5.81928e-10
Gradient: 118 = 3.46575e-10
Gradient: 119 = -1.63266e-09
Gradient: 120 = -1.00192e-09
Gradient: 121 = -4.2121e-11
Gradient: 122 = -2.5085e-10
Gradient: 123 = -1.31195e-10
Gradient: 124 = 8.82096e-10
Gradient: 125 = 8.03766e-11
Gradient: 126 = 1.44603e-10
Gradient: 127 = 7.17691e-11
Gradient: 128 = -5.73145e-11
Gradient: 129 = 1.01079e-09
Gradient: 130 = -8.49241e-10
Gradient: 131 = -1.54329e-10
Gradient: 132 = -1.14824e-10
Gradient: 133 = 1.09992e-10
Gradient: 134 = -6.44434e-10
Gradient: 135 = -6.99665e-10
Gradient: 136 = -1.33919e-09
Gradient: 137 = 9.10905e-10
Gradient: 138 = 6.35396e-10
Gradient: 139 = -1.59673e-09
Gradient: 140 = 1.52126e-10
Gradient: 141 = -4.55771e-10
Gradient: 142 = 4.00973e-10
Gradient: 143 = -1.49441e-10
Gradient: 144 = -7.91024e-11
Gradient: 145 = 8.20342e-10
Gradient: 146 = 5.79979e-10
Gradient: 147 = -2.74025e-10
Gradient: 148 = 1.50663e-09
Gradient: 149 = -1.00283e-09
Gradient: 150 = 4.85386e-10
Gradient: 151 = -2.95017e-10
Gradient: 152 = 2.12651e-10
Gradient: 153 = -2.18384e-12
Gradient: 154 = -1.12229e-09
Gradient: 155 = -1.00651e-09
Gradient: 156 = -1.52029e-10
Gradient: 157 = -1.20497e-09
Gradient: 158 = 2.47155e-10
Gradient: 159 = -1.31024e-10
Gradient: 160 = -8.17749e-10
Gradient: 161 = -7.69717e-10
Gradient: 162 = 1.83616e-09
Gradient: 163 = -1.57498e-10
Gradient: 164 = 6.02803e-10
Gradient: 165 = -3.27589e-10
Gradient: 166 = -2.78297e-10
Gradient: 167 = 2.06683e-10
Gradient: 168 = -4.5361e-11
Gradient: 169 = 8.86189e-11
Gradient: 170 = -2.26407e-10
Gradient: 171 = 9.06241e-10
Gradient: 172 = -8.50368e-11
Gradient: 173 = 1.64426e-10
Gradient: 174 = -3.49429e-10
Gradient: 175 = 8.23434e-10
Gradient: 176 = 9.80549e-10
Gradient: 177 = -3.41345e-10
Gradient: 178 = -9.92486e-11
Gradient: 179 = 9.03356e-10
Gradient: 180 = -1.22828e-09
Gradient: 181 = -1.25956e-09
Gradient: 182 = -4.21885e-13
Gradient: 183 = -3.04624e-10
Gradient: 184 = -2.95506e-10
Gradient: 185 = 4.56794e-10
Gradient: 186 = -4.22006e-10
Gradient: 187 = 2.67562e-10
Gradient: 188 = -2.21974e-10
Gradient: 189 = -4.09993e-10
Gradient: 190 = 2.16882e-10
Gradient: 191 = 3.00447e-10
Gradient: 192 = -3.84143e-10
Gradient: 193 = -7.18956e-10
Gradient: 194 = -3.35831e-10
Gradient: 195 = 4.37637e-10
Gradient: 196 = -1.65585e-09
Gradient: 197 = 7.36179e-10
Gradient: 198 = 7.84664e-11
Gradient: 199 = -2.07853e-09
Gradient: 200 = 1.0933e-09
Gradient: 201 = 8.27981e-10
Gradient: 202 = 1.40059e-10
Gradient: 203 = -1.03046e-09
Gradient: 204 = -1.49726e-10
Gradient: 205 = -2.26748e-10
Gradient: 206 = -1.37447e-10
Gradient: 207 = 2.79883e-09
Gradient: 208 = -9.39235e-10
Gradient: 209 = -2.02353e-09
Gradient: 210 = 3.75621e-10
Gradient: 211 = 3.48048e-10
Gradient: 212 = -4.2337e-10
Gradient: 213 = 4.15071e-10
Gradient: 214 = -4.52303e-10
Gradient: 215 = 1.58593e-11
Gradient: 216 = -1.67495e-11
Gradient: 217 = -1.02567e-09
Gradient: 218 = -2.36293e-10
Gradient: 219 = -1.03757e-09
Gradient: 220 = -1.2923e-09
Gradient: 221 = -7.37611e-10
Gradient: 222 = 6.37718e-10
Gradient: 223 = 1.07657e-09
Gradient: 224 = 1.64296e-10
Gradient: 225 = 1.19601e-09
Gradient: 226 = -5.2429e-11
Gradient: 227 = 4.38662e-10
Gradient: 228 = 3.66447e-10
Gradient: 229 = -4.31238e-11
Gradient: 230 = 2.05535e-10
Gradient: 231 = -7.61751e-10
Gradient: 232 = -7.44374e-10
Gradient: 233 = -4.07063e-11
Gradient: 234 = -8.55114e-10
Gradient: 235 = -2.27987e-09
Gradient: 236 = 3.80774e-10
Gradient: 237 = 7.99012e-10
Gradient: 238 = 9.57941e-10
Gradient: 239 = 6.15873e-10
Gradient: 240 = 9.66433e-10
Gradient: 241 = -1.21912e-09
Gradient: 242 = 4.91564e-11
Gradient: 243 = 9.37597e-10
Gradient: 244 = -1.13598e-09
Gradient: 245 = -1.16397e-10
Gradient: 246 = 1.01469e-10
Gradient: 247 = 2.25765e-10
Gradient: 248 = -1.6873e-09
Gradient: 249 = -5.35168e-10
Gradient: 250 = -1.65187e-09
Gradient: 251 = -2.6404e-10
Gradient: 252 = 3.50817e-10
Gradient: 253 = -8.9945e-10
Gradient: 254 = 9.05123e-10
Gradient: 255 = 6.34885e-10
Gradient: 256 = -3.27553e-10
Gradient: 257 = -1.2033e-10
Gradient: 258 = 1.83057e-09
Gradient: 259 = -8.19066e-11
Gradient: 260 = -1.41326e-11
Gradient: 261 = 1.87641e-10
Gradient: 262 = 2.73679e-11
Gradient: 263 = -2.59766e-10
Gradient: 264 = 7.44841e-10
Gradient: 265 = -4.48375e-10
Gradient: 266 = 7.05313e-10
Gradient: 267 = -9.55977e-10
Gradient: 268 = 1.27298e-09
Gradient: 269 = -6.79903e-11
Gradient: 270 = 1.26731e-09
Gradient: 271 = -3.35573e-10
Gradient: 272 = 1.41598e-09
Gradient: 273 = 1.24181e-09
Gradient: 274 = -1.16054e-09
Gradient: 275 = 1.97276e-09
Gradient: 276 = 1.02865e-11
Gradient: 277 = 6.96943e-10
Gradient: 278 = -1.05698e-10
Gradient: 279 = -1.51628e-10
Gradient: 280 = 2.73467e-10
Gradient: 281 = -1.15202e-09
Gradient: 282 = 1.31242e-09
Gradient: 283 = -5.92376e-12
Gradient: 284 = -5.67482e-10
Gradient: 285 = 2.72113e-10
Gradient: 286 = -1.71025e-09
Gradient: 287 = -1.88045e-09
Gradient: 288 = -2.9047e-10
Gradient: 289 = 8.32036e-10
Gradient: 290 = 3.34012e-10
Gradient: 291 = 2.17369e-10
Gradient: 292 = -1.8108e-09
Gradient: 293 = 1.10197e-09
Gradient: 294 = 4.88236e-10
Gradient: 295 = 1.42745e-09
Gradient: 296 = -2.73883e-09
Gradient: 297 = -4.63785e-10
Gradient: 298 = -4.0443e-09
Gradient: 299 = -5.18526e-10
Gradient: 300 = -8.32642e-10
Gradient: 301 = 2.4491e-09
Gradient: 302 = -9.0364e-10
Gradient: 303 = -1.1164e-09
Gradient: 304 = 7.04858e-11
Gradient: 305 = -2.80806e-11
Gradient: 306 = 9.1702e-10
Gradient: 307 = 3.87217e-10
Gradient: 308 = -7.03778e-10
Gradient: 309 = 3.77082e-09
Gradient: 310 = 2.8391e-09
Gradient: 311 = -5.2512e-10
Gradient: 312 = -2.58899e-09
Gradient: 313 = 1.11101e-10
Gradient: 314 = -4.58385e-10
Gradient: 315 = 5.82077e-10
Gradient: 316 = 2.22008e-09
Gradient: 317 = 1.1255e-10
Gradient: 318 = 1.65766e-09
Gradient: 319 = 1.33923e-10
Gradient: 320 = 2.14698e-10
Gradient: 321 = -8.70841e-10
Gradient: 322 = -9.61336e-10
Gradient: 323 = -4.30191e-10
Gradient: 324 = 3.93243e-10
Gradient: 325 = 1.11828e-09
Gradient: 326 = -5.34726e-10
Gradient: 327 = 8.10303e-10
Gradient: 328 = -1.38471e-10
Gradient: 329 = -1.5541e-10
Gradient: 330 = 2.67802e-10
Gradient: 331 = -5.22618e-10
Gradient: 332 = -1.4262e-10
Gradient: 333 = 2.86207e-10
Gradient: 334 = -8.0604e-10
Gradient: 335 = -1.53136e-10
Gradient: 336 = 4.37922e-10
Gradient: 337 = 3.08546e-10
Gradient: 338 = 1.47577e-09
Gradient: 339 = -1.01375e-09
Gradient: 340 = -3.94721e-10
Gradient: 341 = -1.20372e-09
Gradient: 342 = -8.74593e-10
Gradient: 343 = -7.64828e-10
Gradient: 344 = 1.48457e-09
Gradient: 345 = 2.51293e-09
Gradient: 346 = -1.44871e-09
Gradient: 347 = 7.85235e-10
Gradient: 348 = -2.74042e-10
Gradient: 349 = 7.37373e-10
Gradient: 350 = 1.78686e-10
Gradient: 351 = -5.31941e-10
Gradient: 352 = 1.59031e-09
Gradient: 353 = 3.77895e-10
Gradient: 354 = -2.06342e-10
Gradient: 355 = -5.39387e-10
Gradient: 356 = 8.49818e-10
Gradient: 357 = -2.36844e-09
Gradient: 358 = -4.27235e-10
Gradient: 359 = -1.8369e-09
Gradient: 360 = -1.41694e-09
Gradient: 361 = 4.01542e-10
Gradient: 362 = 1.34622e-09
Gradient: 363 = -1.79955e-09
Gradient: 364 = -5.00449e-10
Gradient: 365 = 1.81728e-10
Gradient: 366 = 5.83668e-10
Gradient: 367 = -3.47598e-10
Gradient: 368 = 1.05849e-09
Gradient: 369 = 1.39426e-09
Gradient: 370 = 1.18484e-09
Gradient: 371 = 2.21553e-09
Gradient: 372 = -4.49973e-10
Gradient: 373 = -1.05194e-09
Gradient: 374 = 1.125e-09
Gradient: 375 = -6.40853e-10
Gradient: 376 = 3.00832e-09
Gradient: 377 = 1.3369e-09
Gradient: 378 = 5.12273e-10
Gradient: 379 = -2.49372e-10
Gradient: 380 = 1.02033e-09
Gradient: 381 = -3.91708e-10
Gradient: 382 = -5.53655e-11
Gradient: 383 = -6.66148e-10
Gradient: 384 = 9.1082e-11
Gradient: 385 = -1.02057e-09
Gradient: 386 = 3.62888e-10
Gradient: 387 = -9.81629e-10
Gradient: 388 = -2.42585e-09
Gradient: 389 = 2.51703e-10
Gradient: 390 = 1.49203e-09
Gradient: 391 = -1.52681e-10
Gradient: 392 = 1.48248e-09
Gradient: 393 = 1.72292e-09
Gradient: 394 = -9.61791e-11
Gradient: 395 = 2.09189e-09
Gradient: 396 = 2.90811e-10
Gradient: 397 = 1.13043e-09
Gradient: 398 = 4.91355e-10
Gradient: 399 = -2.36435e-09
Gradient: 400 = 1.23902e-09
Gradient: 401 = 2.78288e-09
Gradient: 402 = 1.95033e-10
Gradient: 403 = -7.37145e-10
Gradient: 404 = 1.035e-09
Gradient: 405 = -2.57955e-10
Gradient: 406 = -8.88463e-10
Gradient: 407 = -5.57804e-10
Gradient: 408 = -2.44654e-10
Gradient: 409 = 7.03656e-10
Gradient: 410 = 1.08412e-09
Gradient: 411 = 5.52518e-11
Gradient: 412 = 9.90667e-10
Gradient: 413 = 1.12669e-09
Gradient: 414 = 7.44998e-10
Gradient: 415 = -3.83579e-10
Gradient: 416 = -9.99307e-10
Gradient: 417 = 1.84684e-10
Gradient: 418 = -1.54614e-10
Gradient: 419 = -4.31612e-10
Gradient: 420 = 1.10532e-09
Gradient: 421 = 1.53886e-09
Gradient: 422 = -1.85139e-09
Gradient: 423 = -7.02698e-10
Gradient: 424 = 2.39544e-09
Gradient: 425 = 1.60753e-10
Gradient: 426 = -7.88418e-10
Gradient: 427 = 8.12788e-10
Gradient: 428 = -6.97469e-10
Gradient: 429 = 6.61657e-11
Gradient: 430 = 4.89479e-10
Gradient: 431 = -1.226e-09
Gradient: 432 = 1.05717e-09
Gradient: 433 = -3.09785e-10
Gradient: 434 = -1.49555e-10
Gradient: 435 = -2.48974e-11
Gradient: 436 = 3.92049e-10
Gradient: 437 = 4.12456e-10
Gradient: 438 = -6.32843e-10
Gradient: 439 = -9.55083e-10
Gradient: 440 = -1.74242e-09
Gradient: 441 = 6.16296e-10
Gradient: 442 = 2.54715e-10
Gradient: 443 = -4.16776e-10
Gradient: 444 = 2.92516e-10
Gradient: 445 = 3.10514e-10
Gradient: 446 = -1.94819e-09
Gradient: 447 = 6.36021e-10
Gradient: 448 = -2.70916e-10
Gradient: 449 = -7.12362e-10
Gradient: 450 = -8.12519e-10
Gradient: 451 = 1.33923e-10
Gradient: 452 = -1.68006e-09
Gradient: 453 = -6.85588e-10
Gradient: 454 = 1.23447e-09
Gradient: 455 = -1.10765e-09
Gradient: 456 = 2.68869e-10
Gradient: 457 = -1.81172e-09
Gradient: 458 = 1.52914e-09
Gradient: 459 = 4.28997e-10
Gradient: 460 = -6.7979e-10
Gradient: 461 = -1.3456e-09
Gradient: 462 = 3.54925e-10
Gradient: 463 = -1.97133e-10
Gradient: 464 = -8.68397e-10
Gradient: 465 = -1.53875e-10
Gradient: 466 = 7.10884e-10
Gradient: 467 = -1.6563e-09
Gradient: 468 = -5.12273e-10
Gradient: 469 = 1.04604e-09
Gradient: 470 = -5.57293e-10
Gradient: 471 = -1.03887e-09
Gradient: 472 = -6.80984e-11
Gradient: 473 = -5.56497e-10
Gradient: 474 = 3.96054e-10
Gradient: 475 = 4.33943e-10
Gradient: 476 = 1.47753e-09
Gradient: 477 = 1.52079e-09
Gradient: 478 = -1.08668e-09
Gradient: 479 = 8.37872e-10
Gradient: 480 = 6.07031e-10
Gradient: 481 = 6.25391e-10
Gradient: 482 = -5.90235e-10
Gradient: 483 = -4.79531e-10
Gradient: 484 = -1.00664e-09
Gradient: 485 = 1.40176e-10
Gradient: 486 = 1.9395e-10
Gradient: 487 = -1.2177e-09
Gradient: 488 = -3.53048e-10
Gradient: 489 = -1.13971e-10
Gradient: 490 = -3.1921e-09
Gradient: 491 = -6.00778e-10
Gradient: 492 = 6.46878e-10
Gradient: 493 = -1.79512e-10
Gradient: 494 = -4.43828e-10
Gradient: 495 = -1.76124e-09
Gradient: 496 = -7.57097e-10
Gradient: 497 = 5.07782e-10
Gradient: 498 = -8.34234e-10
Gradient: 499 = 5.11193e-10
Gradient: 500 = 6.25041e-10
Gradient: 501 = -3.48905e-10
Gradient: 502 = -1.5948e-09
Gradient: 503 = -1.46372e-10
Gradient: 504 = -2.46484e-09
Gradient: 505 = -1.14937e-09
Gradient: 506 = 3.94589e-10
Gradient: 507 = -1.51772e-09
Gradient: 508 = 5.30292e-10
Gradient: 509 = -5.23471e-10
Gradient: 510 = -4.55884e-11
Gradient: 511 = -4.14275e-10
Gradient: 512 = 8.73779e-10
Gradient: 513 = -6.25391e-10
Gradient: 514 = -1.27329e-09
Gradient: 515 = -1.32957e-10
Gradient: 516 = -1.513e-09
Gradient: 517 = -9.3678e-10
Gradient: 518 = -1.10513e-09
Gradient: 519 = -1.24146e-09
Gradient: 520 = -5.27905e-10
Gradient: 521 = 1.43984e-10
Gradient: 522 = -4.07567e-10
Gradient: 523 = 2.55915e-09
Gradient: 524 = -2.67367e-10
Gradient: 525 = -1.55183e-10
Gradient: 526 = -2.45223e-10
Gradient: 527 = -4.23881e-10
Gradient: 528 = 4.9122e-11
Gradient: 529 = -2.87537e-09
Gradient: 530 = -3.36854e-10
Gradient: 531 = -1.37936e-09
Gradient: 532 = 3.9006e-10
Gradient: 533 = -4.76973e-10
Gradient: 534 = -2.97236e-10
Gradient: 535 = 1.8477e-09
Gradient: 536 = 4.00746e-10
Gradient: 537 = -8.73627e-10
Gradient: 538 = 1.04012e-09
Gradient: 539 = 6.36646e-12
Gradient: 540 = 1.18007e-10
Gradient: 541 = -4.23467e-10
Gradient: 542 = 4.61228e-10
Gradient: 543 = -8.56062e-11
Gradient: 544 = -3.59591e-10
Gradient: 545 = 5.01302e-10
Gradient: 546 = -3.03206e-10
Gradient: 547 = -1.42222e-09
Gradient: 548 = 5.21368e-10
Gradient: 549 = -3.95232e-10
Gradient: 550 = -4.21778e-11
Gradient: 551 = -1.96616e-09
Gradient: 552 = 5.46379e-10
Gradient: 553 = 3.79315e-11
Gradient: 554 = -8.0945e-11
Gradient: 555 = 1.31809e-09
Gradient: 556 = -5.17844e-10
Gradient: 557 = -8.56573e-10
Gradient: 558 = 2.94518e-12
Gradient: 559 = 1.14221e-09
Gradient: 560 = -3.6971e-10
Gradient: 561 = -2.11685e-10
Gradient: 562 = 2.33103e-09
Gradient: 563 = -1.4611e-09
Gradient: 564 = -1.71661e-09
Gradient: 565 = -1.32197e-10
Gradient: 566 = -2.61593e-10
Gradient: 567 = -2.65231e-10
[...]
	Block[ 2]            0.00000 [K]
	Block[ 3]            0.00000 [K]
	Block[ 4]            0.00000 [K]
	------------------------------------------------------------------------------
	Average              0.00000 [K] +/-            0.00000 [K]

Average Adsorbate Bend-Bend cross term energy:
==============================================
	Block[ 0]            0.00000 [K]
	Block[ 1]            0.00000 [K]
	Block[ 2]            0.00000 [K]
	Block[ 3]            0.00000 [K]
	Block[ 4]            0.00000 [K]
	------------------------------------------------------------------------------
	Average              0.00000 [K] +/-            0.00000 [K]

Average Adsorbate Bond-Bend cross term energy:
=================================================
	Block[ 0]            0.00000 [K]
	Block[ 1]            0.00000 [K]
	Block[ 2]            0.00000 [K]
	Block[ 3]            0.00000 [K]
	Block[ 4]            0.00000 [K]
	------------------------------------------------------------------------------
	Average              0.00000 [K] +/-            0.00000 [K]

Average Adsorbate Bond-Torsion cross term energy:
=================================================
	Block[ 0]            0.00000 [K]
	Block[ 1]            0.00000 [K]
	Block[ 2]            0.00000 [K]
	Block[ 3]            0.00000 [K]
	Block[ 4]            0.00000 [K]
	------------------------------------------------------------------------------
	Average              0.00000 [K] +/-            0.00000 [K]

Average Adsorbate Bend-Torsion cross term energy:
=================================================
	Block[ 0]            0.00000 [K]
	Block[ 1]            0.00000 [K]
	Block[ 2]            0.00000 [K]
	Block[ 3]            0.00000 [K]
	Block[ 4]            0.00000 [K]
	------------------------------------------------------------------------------
	Average              0.00000 [K] +/-            0.00000 [K]

Average Adsorbate Intra Van der Waals energy:
=============================================
	Block[ 0]            0.00000 [K]
	Block[ 1]            0.00000 [K]
	Block[ 2]            0.00000 [K]
	Block[ 3]            0.00000 [K]
	Block[ 4]            0.00000 [K]
	------------------------------------------------------------------------------
	Average              0.00000 [K] +/-            0.00000 [K]

Average Adsorbate Intra charge-charge Coulomb energy:
=======================================
	Block[ 0]            0.00000 [K]
	Block[ 1]            0.00000 [K]
	Block[ 2]            0.00000 [K]
	Block[ 3]            0.00000 [K]
	Block[ 4]            0.00000 [K]
	------------------------------------------------------------------------------
	Average              0.00000 [K] +/-            0.00000 [K]

Average Adsorbate Intra charge-bonddipole Coulomb energy:
=======================================
	Block[ 0]            0.00000 [K]
	Block[ 1]            0.00000 [K]
	Block[ 2]            0.00000 [K]
	Block[ 3]            0.00000 [K]
	Block[ 4]            0.00000 [K]
	------------------------------------------------------------------------------
	Average              0.00000 [K] +/-            0.00000 [K]

Average Adsorbate Intra bonddipole-bonddipole Coulomb energy:
=======================================
	Block[ 0]            0.00000 [K]
	Block[ 1]            0.00000 [K]
	Block[ 2]            0.00000 [K]
	Block[ 3]            0.00000 [K]
	Block[ 4]            0.00000 [K]
	------------------------------------------------------------------------------
	Average              0.00000 [K] +/-            0.00000 [K]

Average Cation Bond stretch energy:
=================================
	Block[ 0]            0.00000 [K]
	Block[ 1]            0.00000 [K]
	Block[ 2]            0.00000 [K]
	Block[ 3]            0.00000 [K]
	Block[ 4]            0.00000 [K]
	------------------------------------------------------------------------------
	Average              0.00000 [K] +/-            0.00000 [K]

Average Cation UreyBradley stretch energy:
==========================================
	Block[ 0]            0.00000 [K]
	Block[ 1]            0.00000 [K]
	Block[ 2]            0.00000 [K]
	Block[ 3]            0.00000 [K]
	Block[ 4]            0.00000 [K]
	------------------------------------------------------------------------------
	Average              0.00000 [K] +/-            0.00000 [K]

Average Cation Bend angle energy:
=================================
	Block[ 0]            0.00000 [K]
	Block[ 1]            0.00000 [K]
	Block[ 2]            0.00000 [K]
	Block[ 3]            0.00000 [K]
	Block[ 4]            0.00000 [K]
	------------------------------------------------------------------------------
	Average              0.00000 [K] +/-            0.00000 [K]

Average Cation Bend angle inversion energy:
===========================================
	Block[ 0]            0.00000 [K]
	Block[ 1]            0.00000 [K]
	Block[ 2]            0.00000 [K]
	Block[ 3]            0.00000 [K]
	Block[ 4]            0.00000 [K]
	------------------------------------------------------------------------------
	Average              0.00000 [K] +/-            0.00000 [K]

Average Cation Torsion energy:
==============================
	Block[ 0]            0.00000 [K]
	Block[ 1]            0.00000 [K]
	Block[ 2]            0.00000 [K]
	Block[ 3]            0.00000 [K]
	Block[ 4]            0.00000 [K]
	------------------------------------------------------------------------------
	Average              0.00000 [K] +/-            0.00000 [K]

Average Cation Improper Torsion energy:
=======================================
	Block[ 0]            0.00000 [K]
	Block[ 1]            0.00000 [K]
	Block[ 2]            0.00000 [K]
	Block[ 3]            0.00000 [K]
	Block[ 4]            0.00000 [K]
	------------------------------------------------------------------------------
	Average              0.00000 [K] +/-            0.00000 [K]

Average Cation Bond-Bond cross term energy:
=================================================
	Block[ 0]            0.00000 [K]
	Block[ 1]            0.00000 [K]
	Block[ 2]            0.00000 [K]
	Block[ 3]            0.00000 [K]
	Block[ 4]            0.00000 [K]
	------------------------------------------------------------------------------
	Average              0.00000 [K] +/-            0.00000 [K]

Average Cation Bend-Bend cross term energy:
===========================================
	Block[ 0]            0.00000 [K]
	Block[ 1]            0.00000 [K]
	Block[ 2]            0.00000 [K]
	Block[ 3]            0.00000 [K]
	Block[ 4]            0.00000 [K]
	------------------------------------------------------------------------------
	Average              0.00000 [K] +/-            0.00000 [K]

Average Cation Bond-Bend cross term energy:
==============================================
	Block[ 0]            0.00000 [K]
	Block[ 1]            0.00000 [K]
	Block[ 2]            0.00000 [K]
	Block[ 3]            0.00000 [K]
	Block[ 4]            0.00000 [K]
	------------------------------------------------------------------------------
	Average              0.00000 [K] +/-            0.00000 [K]

Average Cation Bond-Torsion cross term energy:
==============================================
	Block[ 0]            0.00000 [K]
	Block[ 1]            0.00000 [K]
	Block[ 2]            0.00000 [K]
	Block[ 3]            0.00000 [K]
	Block[ 4]            0.00000 [K]
	------------------------------------------------------------------------------
	Average              0.00000 [K] +/-            0.00000 [K]

Average Cation Bend-Torsion cross term energy:
==============================================
	Block[ 0]            0.00000 [K]
	Block[ 1]            0.00000 [K]
	Block[ 2]            0.00000 [K]
	Block[ 3]            0.00000 [K]
	Block[ 4]            0.00000 [K]
	------------------------------------------------------------------------------
	Average              0.00000 [K] +/-            0.00000 [K]

Average Cation Intra Van der Waals energy:
==========================================
	Block[ 0]            0.00000 [K]
	Block[ 1]            0.00000 [K]
	Block[ 2]            0.00000 [K]
	Block[ 3]            0.00000 [K]
	Block[ 4]            0.00000 [K]
	------------------------------------------------------------------------------
	Average              0.00000 [K] +/-            0.00000 [K]

Average Cation Intra charge-charge Coulomb energy:
====================================
	Block[ 0]            0.00000 [K]
	Block[ 1]            0.00000 [K]
	Block[ 2]            0.00000 [K]
	Block[ 3]            0.00000 [K]
	Block[ 4]            0.00000 [K]
	------------------------------------------------------------------------------
	Average              0.00000 [K] +/-            0.00000 [K]

Average Cation Intra charge-bonddipole Coulomb energy:
====================================
	Block[ 0]            0.00000 [K]
	Block[ 1]            0.00000 [K]
	Block[ 2]            0.00000 [K]
	Block[ 3]            0.00000 [K]
	Block[ 4]            0.00000 [K]
	------------------------------------------------------------------------------
	Average              0.00000 [K] +/-            0.00000 [K]

Average Cation Intra bonddipole-bonddipole Coulomb energy:
====================================
	Block[ 0]            0.00000 [K]
	Block[ 1]            0.00000 [K]
	Block[ 2]            0.00000 [K]
	Block[ 3]            0.00000 [K]
	Block[ 4]            0.00000 [K]
	------------------------------------------------------------------------------
	Average              0.00000 [K] +/-            0.00000 [K]

Average Host-Host energy:
=========================
	Block[ 0] 0.00000            Van der Waals: 0.00000            Coulomb: 0.00000            [K]
	Block[ 1] 0.00000            Van der Waals: 0.00000            Coulomb: 0.00000            [K]
	Block[ 2] 0.00000            Van der Waals: 0.00000            Coulomb: 0.00000            [K]
	Block[ 3] 0.00000            Van der Waals: 0.00000            Coulomb: 0.00000            [K]
	Block[ 4] 0.00000            Van der Waals: 0.00000            Coulomb: 0.00000            [K]
	------------------------------------------------------------------------------
	Average   0.00000            Van der Waals: 0.000000           Coulomb: 0.00000            [K]
	      +/- 0.00000                       +/- 0.000000                +/- 0.00000            [K]

Average Adsorbate-Adsorbate energy:
===================================
	Block[ 0] 0.00000            Van der Waals: 0.00000            Coulomb: 0.00000            [K]
	Block[ 1] 0.00000            Van der Waals: 0.00000            Coulomb: 0.00000            [K]
	Block[ 2] 0.00000            Van der Waals: 0.00000            Coulomb: 0.00000            [K]
	Block[ 3] 0.00000            Van der Waals: 0.00000            Coulomb: 0.00000            [K]
	Block[ 4] 0.00000            Van der Waals: 0.00000            Coulomb: 0.00000            [K]
	------------------------------------------------------------------------------
	Average   0.00000            Van der Waals: 0.000000           Coulomb: 0.00000            [K]
	      +/- 0.00000                       +/- 0.000000                +/- 0.00000            [K]

Average Cation-Cation energy:
=============================
	Block[ 0] 0.00000            Van der Waals: 0.00000            Coulomb: 0.00000            [K]
	Block[ 1] 0.00000            Van der Waals: 0.00000            Coulomb: 0.00000            [K]
	Block[ 2] 0.00000            Van der Waals: 0.00000            Coulomb: 0.00000            [K]
	Block[ 3] 0.00000            Van der Waals: 0.00000            Coulomb: 0.00000            [K]
	Block[ 4] 0.00000            Van der Waals: 0.00000            Coulomb: 0.00000            [K]
	------------------------------------------------------------------------------
	Average   0.00000            Van der Waals: 0.000000           Coulomb: 0.00000            [K]
	      +/- 0.00000                       +/- 0.000000                +/- 0.00000            [K]

Average Host-Adsorbate energy:
==============================
	Block[ 0] 0.00000            Van der Waals: 0.00000            Coulomb: 0.00000            [K]
	Block[ 1] 0.00000            Van der Waals: 0.00000            Coulomb: 0.00000            [K]
	Block[ 2] 0.00000            Van der Waals: 0.00000            Coulomb: 0.00000            [K]
	Block[ 3] 0.00000            Van der Waals: 0.00000            Coulomb: 0.00000            [K]
	Block[ 4] 0.00000            Van der Waals: 0.00000            Coulomb: 0.00000            [K]
	------------------------------------------------------------------------------
	Average   0.00000            Van der Waals: 0.000000           Coulomb: 0.00000            [K]
	      +/- 0.00000                       +/- 0.000000                +/- 0.00000            [K]

Average Host-Cation energy:
===========================
	Block[ 0] 0.00000            Van der Waals: 0.00000            Coulomb: 0.00000            [K]
	Block[ 1] 0.00000            Van der Waals: 0.00000            Coulomb: 0.00000            [K]
	Block[ 2] 0.00000            Van der Waals: 0.00000            Coulomb: 0.00000            [K]
	Block[ 3] 0.00000            Van der Waals: 0.00000            Coulomb: 0.00000            [K]
	Block[ 4] 0.00000            Van der Waals: 0.00000            Coulomb: 0.00000            [K]
	------------------------------------------------------------------------------
	Average   0.00000            Van der Waals: 0.000000           Coulomb: 0.00000            [K]
	      +/- 0.00000                       +/- 0.000000                +/- 0.00000            [K]

Average Adsorbate-Cation energy:
================================
	Block[ 0] 0.00000            Van der Waals: 0.00000            Coulomb: 0.00000            [K]
	Block[ 1] 0.00000            Van der Waals: 0.00000            Coulomb: 0.00000            [K]
	Block[ 2] 0.00000            Van der Waals: 0.00000            Coulomb: 0.00000            [K]
	Block[ 3] 0.00000            Van der Waals: 0.00000            Coulomb: 0.00000            [K]
	Block[ 4] 0.00000            Van der Waals: 0.00000            Coulomb: 0.00000            [K]
	------------------------------------------------------------------------------
	Average   0.00000            Van der Waals: 0.000000           Coulomb: 0.00000            [K]
	      +/- 0.00000                       +/- 0.000000                +/- 0.00000            [K]

Host polarization energy:
=======================
	Block[ 0]            0.00000 [K]
	Block[ 1]            0.00000 [K]
	Block[ 2]            0.00000 [K]
	Block[ 3]            0.00000 [K]
	Block[ 4]            0.00000 [K]
	------------------------------------------------------------------------------
	Average              0.00000 [K] +/-            0.00000 [K]

Adsorbate polarization energy:
=======================
	Block[ 0]            0.00000 [K]
	Block[ 1]            0.00000 [K]
	Block[ 2]            0.00000 [K]
	Block[ 3]            0.00000 [K]
	Block[ 4]            0.00000 [K]
	------------------------------------------------------------------------------
	Average              0.00000 [K] +/-            0.00000 [K]

Cation polarization energy:
=======================
	Block[ 0]            0.00000 [K]
	Block[ 1]            0.00000 [K]
	Block[ 2]            0.00000 [K]
	Block[ 3]            0.00000 [K]
	Block[ 4]            0.00000 [K]
	------------------------------------------------------------------------------
	Average              0.00000 [K] +/-            0.00000 [K]

Host back-polarization energy:
=======================
	Block[ 0]            0.00000 [K]
	Block[ 1]            0.00000 [K]
	Block[ 2]            0.00000 [K]
	Block[ 3]            0.00000 [K]
	Block[ 4]            0.00000 [K]
	------------------------------------------------------------------------------
	Average              0.00000 [K] +/-            0.00000 [K]

Adsorbate back-polarization energy:
=======================
	Block[ 0]            0.00000 [K]
	Block[ 1]            0.00000 [K]
	Block[ 2]            0.00000 [K]
	Block[ 3]            0.00000 [K]
	Block[ 4]            0.00000 [K]
	------------------------------------------------------------------------------
	Average              0.00000 [K] +/-            0.00000 [K]

Cation back-polarization energy:
=======================
	Block[ 0]            0.00000 [K]
	Block[ 1]            0.00000 [K]
	Block[ 2]            0.00000 [K]
	Block[ 3]            0.00000 [K]
	Block[ 4]            0.00000 [K]
	------------------------------------------------------------------------------
	Average              0.00000 [K] +/-            0.00000 [K]

Tail-correction energy:
=======================
	Block[ 0]            0.00000 [K]
	Block[ 1]            0.00000 [K]
	Block[ 2]            0.00000 [K]
	Block[ 3]            0.00000 [K]
	Block[ 4]            0.00000 [K]
	------------------------------------------------------------------------------
	Average              0.00000 [K] +/-            0.00000 [K]

Distance-constraints energy:
=======================
	Block[ 0]            0.00000 [K]
	Block[ 1]            0.00000 [K]
	Block[ 2]            0.00000 [K]
	Block[ 3]            0.00000 [K]
	Block[ 4]            0.00000 [K]
	------------------------------------------------------------------------------
	Average              0.00000 [K] +/-            0.00000 [K]

Angle-constraints energy:
=======================
	Block[ 0]            0.00000 [K]
	Block[ 1]            0.00000 [K]
	Block[ 2]            0.00000 [K]
	Block[ 3]            0.00000 [K]
	Block[ 4]            0.00000 [K]
	------------------------------------------------------------------------------
	Average              0.00000 [K] +/-            0.00000 [K]

Dihedral-constraints energy:
=======================
	Block[ 0]            0.00000 [K]
	Block[ 1]            0.00000 [K]
	Block[ 2]            0.00000 [K]
	Block[ 3]            0.00000 [K]
	Block[ 4]            0.00000 [K]
	------------------------------------------------------------------------------
	Average              0.00000 [K] +/-            0.00000 [K]

Inversion-bend constraints energy:
=======================
	Block[ 0]            0.00000 [K]
	Block[ 1]            0.00000 [K]
	Block[ 2]            0.00000 [K]
	Block[ 3]            0.00000 [K]
	Block[ 4]            0.00000 [K]
	------------------------------------------------------------------------------
	Average              0.00000 [K] +/-            0.00000 [K]

Out-of-plane-distance constraints energy:
=======================
	Block[ 0]            0.00000 [K]
	Block[ 1]            0.00000 [K]
	Block[ 2]            0.00000 [K]
	Block[ 3]            0.00000 [K]
	Block[ 4]            0.00000 [K]
	------------------------------------------------------------------------------
	Average              0.00000 [K] +/-            0.00000 [K]

Exclusion-constraints energy:
=======================
	Block[ 0]            0.00000 [K]
	Block[ 1]            0.00000 [K]
	Block[ 2]            0.00000 [K]
	Block[ 3]            0.00000 [K]
	Block[ 4]            0.00000 [K]
	------------------------------------------------------------------------------
	Average              0.00000 [K] +/-            0.00000 [K]

Total energy:
=============
	Block[ 0]            0.00000 [K]
	Block[ 1]            0.00000 [K]
	Block[ 2]            0.00000 [K]
	Block[ 3]            0.00000 [K]
	Block[ 4]            0.00000 [K]
	------------------------------------------------------------------------------
	Average              0.00000 [K] +/-            0.00000 [K]

Number of molecules:
====================


Average Widom Rosenbluth factor:
================================

Average Henry coefficient:
==========================

Average adsorption energy <U_gh>_1-<U_h>_0 obtained from Widom-insertion:
(Note: the total heat of adsorption is dH=<U_gh>_1-<U_h>_0 - <U_g> - RT)
=========================================================================

Simulation finished,  1 warnings

Tue Apr 16 14:56:02 2013
Simulation finished on Tuesday, April 16.
The end time was 02:56 PM.

