Compiler and run-time data
===========================================================================
RASPA 0.99-463
Compiled as a 64-bits application
Compiler: gcc 4.2.1 (Apple Inc. build 5666) (dot 3)
Compile Date = Apr  6 2011, Compile Time = 13:00:35

Thu Apr  7 13:09:19 2011
Simulation started on Thursday, April 07.
The start time was 01:09 PM.

Cpu data:    x86_64
Cpu Model:   MacBookPro6,2
Host name:   Davids-MacBook-Pro.local
OS release:  10.7.0
OS type:     Darwin
OS version:  10J869


Simulation
===========================================================================
Dimensions: 3
Random number seed: 1302174558
RASPA directory set to: /Users/dubbelda/RASPA/simulations/
Number of cycles: 10000
Number of initializing cycles: 1000
Number of equilibration cycles: 0
Print every: 100

Mutual consistent basic set of units:
======================================
Unit of temperature: Kelvin
Unit of length:      1e-10 [m]
Unit of time:        1e-12 [s]
Unit of mass:        1.66054e-27 [kg]
Unit of charge:      1.60218e-19 [C/particle]

Derived units and their conversion factors:
===========================================
Unit of energy:              1.66054e-23 [J]
Unit of force:               1.66054e-13 [N]
Unit of pressure:            1.66054e+07 [Pa]
Unit of velocity:            100 [m/s]
Unit of acceleration:        1e-08 [m^2/s]
Unit of diffusion:           1e-08 [m^2/s]
Unit of dipole moment:       1.60218e-29 [C.m]
Unit of electric potential:  0.000103643 [V]
Unit of electric field:      1.03643e+06 [V]
Unit of polarizability:      1.54587e-35 [-]
Unit of Coulomb potential:   167101.0800066561  [K]
Unit of dielectric constant: 0.0000154587       [s^2 C^2/(kg m^3)]
Unit of wave vectors:        5.3088374589       [cm^1]
Boltzmann constant:          0.8314464919       [-]

Internal conversion factors:
===========================================
Energy to Kelvin:                                    1.2027242847
FH correction factor                                 2.0211930949
Heat capacity conversion factor:                    10.0000088723
From Debye to internal units:                        4.8032067991
Isothermal compressibility conversion factor:        0.0000000602

Energy conversion factors:
===========================================
From mdyne/A to kcal/mol/A^2:           143.933
From mdyne/A to kj/mol/A^2:             602.214
From mdyne/A to K/A^2:                  72429.7
From mdyne A/rad^2 to kcal/mol/deg^2:   0.0438444


Timestep: 0.000500
Initialization Ensemble: NVE (constant number of particles N, constant volume V, constant energy E)
Production run ensemble: NVE (constant number of particles N, constant volume V, constant energy E)
	Degrees of freedom:                        0
	Translational Degrees of freedom:          0
	Rotational Degrees of freedom:             0
	Degrees of freedom Framework:              0


Properties computed
===========================================================================
Movies: no
Radial Distribution Function: no
Number of molecules GCMC histogram: no
Histogram of the molecule positions: no
Free energy profiles: no
Pore Size Distribution Function: no
End-to-end distance: no
Histogram of the energy of the system: no
Compute thermodynamic factors: no
Framework spacing histograms: no
Residence times histograms: no
Distance histograms: no
Bend Angle histograms: no
Dihedral angle histograms: no
Angle between planes histograms: no
Molecule properties: no
Infra-red spectra: no
Mean-squared displacement using modified order-N algorithm: no
Velocity-autocorrelation function modified order-N algorithm: no
Rotational velocity-autocorrelation function modified order-N algorithm: no
Molecular orientation-autocorrelation function modified order-N algorithm: no
Mean-squared displacement (conventional algorithm): no
Velocity-autocorrelation function (conventional algorithm): no
3D density grid for adsorbates: no
Compute cation an/or adsorption sites: no
dcTST snapshots: no
Compute pressure and stress: no


Thermo/Baro-stat NHC parameters
===========================================================================
External temperature: 323.000000 [K]
Beta: 0.003724 [energy unit]
External Pressure: 100000.000000 [Pa]


Thermostat chain-length: 3
Timescale parameter for thermostat: 0.150000 [ps]
Barostat chain-length:   3
Timescale parameter for barostat:   0.150000 [ps]

Number of Yoshida-Suzuki decomposition steps: 5
Number of respa steps: 5


Method and settings for electrostatics
===============================================================================
Dielectric constant of the medium : 1.000000
Ewald summation is used (exact solution of a periodic system)
Relative precision                : 1e-06
Alpha convergence parameter       : 0.265058
kvec (x,y,z)                      : 7 7 7


Rattle parameters
===========================================================================
Distance constraint type: r^2-r^2_0
Bend angle constraint type: theta-theta_0
Dihedral angle constraint type: phi-phi_0
Inversion-bend angle constraint type: chi-chi_0
Out-of-plane distance constraint type: r-r_0


Spectra parameters
===========================================================================
Compute normal modes: no


Minimization parameters
===========================================================================
Generalized coordinates are: Cartesian center-of-mass, elements of the orientational matrix p1,p2,p3 and strain
Potential derivatives are evaluated: analytically
Translation of the system is removed from the generalized Hessian: no
Rotation of the system is removed from the generalized Hessian: no
Maximum step-length: 0.3
Convergence factor: 1
Maximum number of minimization steps: 10000
Use gradients in the line-minimizations: yes
RMS gradient tolerance: 1e-06
Maximum gradient tolerance: 1e-06

Distance constraints: 0
Angle constraints: 0
Dihedral constraints: 0

Improper dihedral constraints: 0

Inversion-bend constraints: 0

Out-of-plane constraints: 0

Harmonic distance constraints: 0
Harmonic angle constraints: 0
Harmonic dihedral constraints: 0

Dihedral mid-point measurements: 0

All framework atoms are fixed

Fixed adsorbate atoms:  
Fixed adsorbate groups (center-of-mass):  
Fixed adsorbate groups (orientation):  

Fixed cation atoms:  
Fixed cation groups (center-of-mass):  
Fixed cation groups (orientation):  


dcTST parameters
===========================================================================
Free energy profiles computed: no
Free energy profiles written every 5000 cycles
Free energy mapping: mapped to x-coordinate
BarrierPosition:       0.0000000000       0.0000000000       0.0000000000
BarrierNormal:         0.0000000000       0.0000000000       0.0000000000
Start with a molecule on top of the barrier: no
Maximum distance to barrier (e.g. distance to minumum free energy):       0.0000000000 [A]
Maximum trajectory time:      10.0000000000 [ps]
Each configuration is used with 5 different initial velocities


Cbmc parameters
===========================================================================
Biasing method: using only the VDW part
Number of trial positions:                             10
Number of trial positions coupled Torsion-selection:   100
Number of trial position for the first bead:           10
Number of trial moves per open bead:                   150
Target acceptance ratio small-mc scheme:               0.400000
Energy overlap criteria:                               100000
Minimal Rosenbluth factor:                             1e-150


Pseudo atoms: 38
===========================================================================
Pseudo Atom[   0] Name UNIT     Oxydation:          Element: H    pdb-name: H    Scat. Types:   1   1 Mass=1.000000000  B-factor:1.000   
                 Charge=1.000     Polarization=0.000    [A^3] (considered a charged atom and no polarization)  Interactions: yes
                 Anisotropic factor:    0.000 [-] (Absolute), Radius:    1.000 [A]
Pseudo Atom[   1] Name He       Oxydation:          Element: He   pdb-name: He   Scat. Types:   3   2 Mass=4.002602000  B-factor:1.000   
                 Charge=0.000     Polarization=0.000    [A^3] (considered a chargeless atom and no polarization)  Interactions: yes
                 Anisotropic factor:    0.000 [-] (Absolute), Radius:    1.000 [A]
Pseudo Atom[   2] Name CH4_sp3  Oxydation:          Element: C    pdb-name: C    Scat. Types:   7   6 Mass=16.042460000 B-factor:1.000   
                 Charge=0.000     Polarization=0.000    [A^3] (considered a chargeless atom and no polarization)  Interactions: yes
                 Anisotropic factor:    0.000 [-] (Absolute), Radius:    1.000 [A]
Pseudo Atom[   3] Name CH3_sp3  Oxydation:          Element: C    pdb-name: C    Scat. Types:   7   6 Mass=15.034520000 B-factor:1.000   
                 Charge=0.000     Polarization=0.000    [A^3] (considered a chargeless atom and no polarization)  Interactions: yes
                 Anisotropic factor:    0.000 [-] (Absolute), Radius:    1.000 [A]
Pseudo Atom[   4] Name CH2_sp3  Oxydation:          Element: C    pdb-name: C    Scat. Types:   7   6 Mass=14.026580000 B-factor:1.000   
                 Charge=0.000     Polarization=0.000    [A^3] (considered a chargeless atom and no polarization)  Interactions: yes
                 Anisotropic factor:    0.000 [-] (Absolute), Radius:    1.000 [A]
Pseudo Atom[   5] Name CH_sp3   Oxydation:          Element: C    pdb-name: C    Scat. Types:   7   6 Mass=13.018640000 B-factor:1.000   
                 Charge=0.000     Polarization=0.000    [A^3] (considered a chargeless atom and no polarization)  Interactions: yes
                 Anisotropic factor:    0.000 [-] (Absolute), Radius:    1.000 [A]
Pseudo Atom[   6] Name C_sp3    Oxydation:          Element: C    pdb-name: C    Scat. Types:   7   6 Mass=12.000000000 B-factor:1.000   
                 Charge=0.000     Polarization=0.000    [A^3] (considered a chargeless atom and no polarization)  Interactions: yes
                 Anisotropic factor:    0.000 [-] (Absolute), Radius:    1.000 [A]
Pseudo Atom[   7] Name H_h2     Oxydation:          Element: H    pdb-name: H    Scat. Types:   1   1 Mass=1.007940000  B-factor:1.000   
                 Charge=0.468     Polarization=0.000    [A^3] (considered a charged atom and no polarization)  Interactions: yes
                 Anisotropic factor:    0.000 [-] (Absolute), Radius:    0.700 [A]
Pseudo Atom[   8] Name H_com    Oxydation:          Element: H    pdb-name: H    Scat. Types:   1   1 Mass=0.000000000  B-factor:1.000   
                 Charge=-0.936    Polarization=0.000    [A^3] (considered a charged atom and no polarization)  Interactions: yes
                 Anisotropic factor:    0.000 [-] (Absolute), Radius:    0.700 [A]
Pseudo Atom[   9] Name C_co2    Oxydation:          Element: C    pdb-name: C    Scat. Types:   7   6 Mass=12.000000000 B-factor:1.000   
                 Charge=0.700     Polarization=0.000    [A^3] (considered a charged atom and no polarization)  Interactions: yes
                 Anisotropic factor:    0.000 [-] (Absolute), Radius:    0.720 [A]
Pseudo Atom[  10] Name O_co2    Oxydation:          Element: O    pdb-name: O    Scat. Types:   9   8 Mass=15.999400000 B-factor:1.000   
                 Charge=-0.350    Polarization=0.000    [A^3] (considered a charged atom and no polarization)  Interactions: yes
                 Anisotropic factor:    0.000 [-] (Absolute), Radius:    0.680 [A]
Pseudo Atom[  11] Name O_o2     Oxydation:          Element: O    pdb-name: O    Scat. Types:   9   8 Mass=15.999400000 B-factor:1.000   
                 Charge=-0.112    Polarization=0.000    [A^3] (considered a charged atom and no polarization)  Interactions: yes
                 Anisotropic factor:    0.000 [-] (Absolute), Radius:    0.700 [A]
Pseudo Atom[  12] Name O_com    Oxydation:          Element: -    pdb-name: O    Scat. Types:   0   8 Mass=0.000000000  B-factor:1.000   
                 Charge=0.224     Polarization=0.000    [A^3] (considered a charged atom and no polarization)  Interactions:  no
                 Anisotropic factor:    0.000 [-] (Absolute), Radius:    0.700 [A]
Pseudo Atom[  13] Name N_n2     Oxydation:          Element: N    pdb-name: N    Scat. Types:   8   7 Mass=14.006740000 B-factor:1.000   
                 Charge=-0.405    Polarization=0.000    [A^3] (considered a charged atom and no polarization)  Interactions: yes
                 Anisotropic factor:    0.000 [-] (Absolute), Radius:    0.700 [A]
Pseudo Atom[  14] Name N_com    Oxydation:          Element: -    pdb-name: N    Scat. Types:   0   7 Mass=0.000000000  B-factor:1.000   
                 Charge=0.810     Polarization=0.000    [A^3] (considered a charged atom and no polarization)  Interactions:  no
                 Anisotropic factor:    0.000 [-] (Absolute), Radius:    0.700 [A]
Pseudo Atom[  15] Name Ar       Oxydation:          Element: Ar   pdb-name: Ar   Scat. Types:  19  18 Mass=39.948000000 B-factor:1.000   
                 Charge=0.000     Polarization=0.000    [A^3] (considered a chargeless atom and no polarization)  Interactions: yes
                 Anisotropic factor:    0.000 [-] (Absolute), Radius:    0.700 [A]
Pseudo Atom[  16] Name Ow       Oxydation:          Element: O    pdb-name: O    Scat. Types:   9   8 Mass=15.999400000 B-factor:1.000   
                 Charge=0.000     Polarization=0.000    [A^3] (considered a chargeless atom and no polarization)  Interactions: yes
                 Anisotropic factor:    0.000 [-] (Absolute), Radius:    0.500 [A]
Pseudo Atom[  17] Name Hw       Oxydation:          Element: H    pdb-name: H    Scat. Types:   1   1 Mass=1.007940000  B-factor:1.000   
                 Charge=0.241     Polarization=0.000    [A^3] (considered a charged atom and no polarization)  Interactions: yes
                 Anisotropic factor:    0.000 [-] (Absolute), Radius:    1.000 [A]
Pseudo Atom[  18] Name Hw       Oxydation:          Element: H    pdb-name: H    Scat. Types:   1   1 Mass=1.007940000  B-factor:1.000   
                 Charge=0.241     Polarization=0.000    [A^3] (considered a charged atom and no polarization)  Interactions: yes
                 Anisotropic factor:    0.000 [-] (Absolute), Radius:    1.000 [A]
Pseudo Atom[  19] Name Lw       Oxydation:          Element: H    pdb-name: L    Scat. Types:   1   3 Mass=0.000000000  B-factor:1.000   
                 Charge=-0.241    Polarization=0.000    [A^3] (considered a charged atom and no polarization)  Interactions: yes
                 Anisotropic factor:    0.000 [-] (Absolute), Radius:    1.000 [A]
Pseudo Atom[  20] Name Lw       Oxydation:          Element: H    pdb-name: L    Scat. Types:   1   3 Mass=0.000000000  B-factor:1.000   
                 Charge=-0.241    Polarization=0.000    [A^3] (considered a charged atom and no polarization)  Interactions: yes
                 Anisotropic factor:    0.000 [-] (Absolute), Radius:    1.000 [A]
Pseudo Atom[  21] Name C_benz   Oxydation:          Element: C    pdb-name: C    Scat. Types:   7   6 Mass=12.000000000 B-factor:1.000   
                 Charge=-0.095    Polarization=0.000    [A^3] (considered a charged atom and no polarization)  Interactions: yes
                 Anisotropic factor:    0.000 [-] (Absolute), Radius:    0.700 [A]
Pseudo Atom[  22] Name H_benz   Oxydation:          Element: H    pdb-name: H    Scat. Types:   1   1 Mass=1.007940000  B-factor:1.000   
                 Charge=0.095     Polarization=0.000    [A^3] (considered a charged atom and no polarization)  Interactions: yes
                 Anisotropic factor:    0.000 [-] (Absolute), Radius:    0.320 [A]
Pseudo Atom[  23] Name N_dmf    Oxydation:          Element: N    pdb-name: N    Scat. Types:   8   7 Mass=14.006740000 B-factor:1.000   
                 Charge=-0.570    Polarization=0.000    [A^3] (considered a charged atom and no polarization)  Interactions: yes
                 Anisotropic factor:    0.000 [-] (Absolute), Radius:    0.500 [A]
Pseudo Atom[  24] Name Co_dmf   Oxydation:          Element: C    pdb-name: C    Scat. Types:   7   6 Mass=12.000000000 B-factor:1.000   
                 Charge=0.450     Polarization=0.000    [A^3] (considered a charged atom and no polarization)  Interactions: yes
                 Anisotropic factor:    0.000 [-] (Absolute), Radius:    0.520 [A]
Pseudo Atom[  25] Name Cm_dmf   Oxydation:          Element: C    pdb-name: C    Scat. Types:   7   6 Mass=12.000000000 B-factor:1.000   
                 Charge=0.280     Polarization=0.000    [A^3] (considered a charged atom and no polarization)  Interactions: yes
                 Anisotropic factor:    0.000 [-] (Absolute), Radius:    0.520 [A]
Pseudo Atom[  26] Name O_dmf    Oxydation:          Element: O    pdb-name: O    Scat. Types:   9   8 Mass=15.999400000 B-factor:1.000   
                 Charge=-0.500    Polarization=0.000    [A^3] (considered a charged atom and no polarization)  Interactions: yes
                 Anisotropic factor:    0.000 [-] (Absolute), Radius:    0.780 [A]
Pseudo Atom[  27] Name H_dmf    Oxydation:          Element: H    pdb-name: H    Scat. Types:   1   1 Mass=1.007940000  B-factor:1.000   
                 Charge=0.060     Polarization=0.000    [A^3] (considered a charged atom and no polarization)  Interactions: yes
                 Anisotropic factor:    0.000 [-] (Absolute), Radius:    0.220 [A]
Pseudo Atom[  28] Name Na       Oxydation:          Element: Na   pdb-name: Na   Scat. Types:  12  11 Mass=22.989770000 B-factor:1.000   
                 Charge=1.000     Polarization=0.000    [A^3] (considered a charged atom and no polarization)  Interactions:  no
                 Anisotropic factor:    0.000 [-] (Absolute), Radius:    1.000 [A]
Pseudo Atom[  29] Name Cl       Oxydation:          Element: Cl   pdb-name: Cl   Scat. Types:  18  17 Mass=22.989770000 B-factor:1.000   
                 Charge=-1.000    Polarization=0.000    [A^3] (considered a charged atom and no polarization)  Interactions: yes
                 Anisotropic factor:    0.000 [-] (Absolute), Radius:    1.000 [A]
Pseudo Atom[  30] Name Kr       Oxydation:          Element: Kr   pdb-name: Kr   Scat. Types:  37  36 Mass=83.798000000 B-factor:1.000   
                 Charge=0.000     Polarization=0.000    [A^3] (considered a chargeless atom and no polarization)  Interactions: yes
                 Anisotropic factor:    0.000 [-] (Absolute), Radius:    1.000 [A]
Pseudo Atom[  31] Name Xe       Oxydation:          Element: Xe   pdb-name: Xe   Scat. Types:  55  54 Mass=131.293000000 B-factor:1.000   
                 Charge=0.000     Polarization=0.000    [A^3] (considered a chargeless atom and no polarization)  Interactions: yes
                 Anisotropic factor:    0.000 [-] (Absolute), Radius:    1.000 [A]
Pseudo Atom[  32] Name Cu1      Oxydation:          Element: Cu   pdb-name: Cu   Scat. Types:  30  29 Mass=63.546039732 B-factor:0.000   
                 Charge=1.248     Polarization=6.200    [A^3] (considered a charged atom and no polarization)  Interactions: yes
                 Anisotropic factor:    0.000 [-] (Absolute), Radius:    1.320 [A]
Pseudo Atom[  33] Name O1       Oxydation:          Element: O    pdb-name: O    Scat. Types:   9   8 Mass=15.999404927 B-factor:0.000   
                 Charge=-0.624    Polarization=0.802    [A^3] (considered a charged atom and no polarization)  Interactions: yes
                 Anisotropic factor:    0.000 [-] (Absolute), Radius:    0.660 [A]
Pseudo Atom[  34] Name C1       Oxydation:          Element: C    pdb-name: C    Scat. Types:   7   6 Mass=12.010735897 B-factor:0.000   
                 Charge=0.494     Polarization=1.760    [A^3] (considered a charged atom and no polarization)  Interactions: yes
                 Anisotropic factor:    0.000 [-] (Absolute), Radius:    0.760 [A]
Pseudo Atom[  35] Name C2       Oxydation:          Element: C    pdb-name: C    Scat. Types:   7   6 Mass=12.010735897 B-factor:0.000   
                 Charge=0.130     Polarization=1.760    [A^3] (considered a charged atom and no polarization)  Interactions: yes
                 Anisotropic factor:    0.000 [-] (Absolute), Radius:    0.760 [A]
Pseudo Atom[  36] Name C3       Oxydation:          Element: C    pdb-name: C    Scat. Types:   7   6 Mass=12.010735897 B-factor:0.000   
                 Charge=-0.156    Polarization=1.760    [A^3] (considered a charged atom and no polarization)  Interactions: yes
                 Anisotropic factor:    0.000 [-] (Absolute), Radius:    0.760 [A]
Pseudo Atom[  37] Name H1       Oxydation:          Element: H    pdb-name: H    Scat. Types:   1   1 Mass=1.007940754  B-factor:0.000   
                 Charge=0.156     Polarization=0.667    [A^3] (considered a charged atom and no polarization)  Interactions: yes
                 Anisotropic factor:    0.000 [-] (Absolute), Radius:    0.310 [A]


Forcefield: GenericMOFs
===========================================================================
CutOff VDW : 12.000000 (144.000000)
CutOff VDW switching on: 10.800000 (116.640000)
CutOff charge-charge : 12.000000 (144.000000)
CutOff charge-charge switching on: 7.800000 (60.840000)
CutOff charge-bonddipole : 12.000000 (144.000000)
CutOff charge-bondipole switching on: 8.400000 (70.560000)
CutOff bonddipole-bonddipole : 12.000000 (144.000000)
CutOff bonddipole-bondipole switching on: 9.000000 (81.000000)
Polarization is neglected
All potentials are shifted to zero at the Cutoff

General mixing rule: Lorentz-Berthelot mixing rules are used FIRST for cross terms
0 cross terms are overwritten using the individual mixing rules from the file 'force_field_mixing_rules.def'
and then 0 terms are overwritten using the specific interactions from the file 'force_field.def'

The force field and all the interactions:
   UNIT -    UNIT [LENNARD_JONES] p_0/k_B:   7.64893 [K], p_1: 2.84642 [A], shift/k_B:  -0.00544866 [K], tailcorrection: no
   UNIT -      He [LENNARD_JONES] p_0/k_B:   9.13090 [K], p_1: 2.74321 [A], shift/k_B:  -0.00521169 [K], tailcorrection: no
   UNIT - CH4_sp3 [LENNARD_JONES] p_0/k_B:  34.81889 [K], p_1: 3.28321 [A], shift/k_B:  -0.05839790 [K], tailcorrection: no
   UNIT - CH3_sp3 [LENNARD_JONES] p_0/k_B:  28.74168 [K], p_1: 3.30321 [A], shift/k_B:  -0.04999342 [K], tailcorrection: no
   UNIT - CH2_sp3 [LENNARD_JONES] p_0/k_B:  20.69638 [K], p_1: 3.40321 [A], shift/k_B:  -0.04305002 [K], tailcorrection: no
   UNIT -  CH_sp3 [LENNARD_JONES] p_0/k_B:  11.40315 [K], p_1: 3.75821 [A], shift/k_B:  -0.04300051 [K], tailcorrection: no
   UNIT -   C_sp3 [LENNARD_JONES] p_0/k_B:   2.47369 [K], p_1: 4.61321 [A], shift/k_B:  -0.03183707 [K], tailcorrection: no
   UNIT -    H_h2 [LENNARD_JONES] p_0/k_B:   7.64893 [K], p_1: 2.84642 [A], shift/k_B:  -0.00544866 [K], tailcorrection: no
   UNIT -   H_com [LENNARD_JONES] p_0/k_B:  16.75457 [K], p_1: 2.90221 [A], shift/k_B:  -0.01340886 [K], tailcorrection: no
   UNIT -   C_co2 [LENNARD_JONES] p_0/k_B:  14.37084 [K], p_1: 2.82321 [A], shift/k_B:  -0.00974631 [K], tailcorrection: no
   UNIT -   O_co2 [LENNARD_JONES] p_0/k_B:  24.58181 [K], p_1: 2.94821 [A], shift/k_B:  -0.02161929 [K], tailcorrection: no
   UNIT -    O_o2 [LENNARD_JONES] p_0/k_B:  19.19265 [K], p_1: 2.93979 [A], shift/k_B:  -0.01659232 [K], tailcorrection: no
   UNIT -    N_n2 [LENNARD_JONES] p_0/k_B:  16.59402 [K], p_1: 3.07821 [A], shift/k_B:  -0.01890557 [K], tailcorrection: no
   UNIT -      Ar [LENNARD_JONES] p_0/k_B:  30.27114 [K], p_1: 3.09321 [A], shift/k_B:  -0.03550833 [K], tailcorrection: no
   UNIT -      Ow [LENNARD_JONES] p_0/k_B:  26.18390 [K], p_1: 2.97171 [A], shift/k_B:  -0.02415156 [K], tailcorrection: no
   UNIT -      Hw [LENNARD_JONES] p_0/k_B:   7.64893 [K], p_1: 2.84642 [A], shift/k_B:  -0.00544866 [K], tailcorrection: no
   UNIT -      Hw [LENNARD_JONES] p_0/k_B:   7.64893 [K], p_1: 2.84642 [A], shift/k_B:  -0.00544866 [K], tailcorrection: no
   UNIT -      Lw [LENNARD_JONES] p_0/k_B:   7.64893 [K], p_1: 2.84642 [A], shift/k_B:  -0.00544866 [K], tailcorrection: no
   UNIT -      Lw [LENNARD_JONES] p_0/k_B:   7.64893 [K], p_1: 2.84642 [A], shift/k_B:  -0.00544866 [K], tailcorrection: no
   UNIT -  C_benz [LENNARD_JONES] p_0/k_B:  15.32391 [K], p_1: 3.22321 [A], shift/k_B:  -0.02300968 [K], tailcorrection: no
   UNIT -  H_benz [LENNARD_JONES] p_0/k_B:  13.95225 [K], p_1: 2.60321 [A], shift/k_B:  -0.00581603 [K], tailcorrection: no
   UNIT -   N_dmf [LENNARD_JONES] p_0/k_B:  24.73690 [K], p_1: 3.02321 [A], shift/k_B:  -0.02529395 [K], tailcorrection: no
   UNIT -  Co_dmf [LENNARD_JONES] p_0/k_B:  19.55624 [K], p_1: 3.27321 [A], shift/k_B:  -0.03220492 [K], tailcorrection: no
   UNIT -  Cm_dmf [LENNARD_JONES] p_0/k_B:  24.73690 [K], p_1: 3.32321 [A], shift/k_B:  -0.04461374 [K], tailcorrection: no
   UNIT -   O_dmf [LENNARD_JONES] p_0/k_B:  27.65670 [K], p_1: 2.90321 [A], shift/k_B:  -0.02217974 [K], tailcorrection: no
   UNIT -   H_dmf [LENNARD_JONES] p_0/k_B:   7.82250 [K], p_1: 2.52321 [A], shift/k_B:  -0.00270396 [K], tailcorrection: no
   UNIT -      Cl [LENNARD_JONES] p_0/k_B:  33.02191 [K], p_1: 3.18287 [A], shift/k_B:  -0.04597661 [K], tailcorrection: no
   UNIT -      Kr [LENNARD_JONES] p_0/k_B:  35.67607 [K], p_1: 3.24121 [A], shift/k_B:  -0.05538904 [K], tailcorrection: no
   UNIT -      Xe [LENNARD_JONES] p_0/k_B:  41.11464 [K], p_1: 3.47321 [A], shift/k_B:  -0.09662730 [K], tailcorrection: no
   UNIT -     Cu1 [LENNARD_JONES] p_0/k_B:   4.38697 [K], p_1: 2.98006 [A], shift/k_B:  -0.00411510 [K], tailcorrection: no
   UNIT -      O1 [LENNARD_JONES] p_0/k_B:  19.19265 [K], p_1: 2.93979 [A], shift/k_B:  -0.01659232 [K], tailcorrection: no
   UNIT -      C1 [LENNARD_JONES] p_0/k_B:  19.13240 [K], p_1: 3.15970 [A], shift/k_B:  -0.02549626 [K], tailcorrection: no
   UNIT -      C2 [LENNARD_JONES] p_0/k_B:  19.13240 [K], p_1: 3.15970 [A], shift/k_B:  -0.02549626 [K], tailcorrection: no
   UNIT -      C3 [LENNARD_JONES] p_0/k_B:  19.13240 [K], p_1: 3.15970 [A], shift/k_B:  -0.02549626 [K], tailcorrection: no
   UNIT -      H1 [LENNARD_JONES] p_0/k_B:   7.64893 [K], p_1: 2.84642 [A], shift/k_B:  -0.00544866 [K], tailcorrection: no
     He -      He [LENNARD_JONES] p_0/k_B:  10.90000 [K], p_1: 2.64000 [A], shift/k_B:  -0.00494280 [K], tailcorrection: no
     He - CH4_sp3 [LENNARD_JONES] p_0/k_B:  41.56501 [K], p_1: 3.18000 [A], shift/k_B:  -0.05755893 [K], tailcorrection: no
     He - CH3_sp3 [LENNARD_JONES] p_0/k_B:  34.31035 [K], p_1: 3.20000 [A], shift/k_B:  -0.04933343 [K], tailcorrection: no
     He - CH2_sp3 [LENNARD_JONES] p_0/k_B:  24.70627 [K], p_1: 3.30000 [A], shift/k_B:  -0.04272436 [K], tailcorrection: no
     He -  CH_sp3 [LENNARD_JONES] p_0/k_B:  13.61249 [K], p_1: 3.65500 [A], shift/k_B:  -0.04343978 [K], tailcorrection: no
     He -   C_sp3 [LENNARD_JONES] p_0/k_B:   2.95296 [K], p_1: 4.51000 [A], shift/k_B:  -0.03319436 [K], tailcorrection: no
     He -    H_h2 [LENNARD_JONES] p_0/k_B:   9.13090 [K], p_1: 2.74321 [A], shift/k_B:  -0.00521169 [K], tailcorrection: no
     He -   H_com [LENNARD_JONES] p_0/k_B:  20.00075 [K], p_1: 2.79900 [A], shift/k_B:  -0.01288149 [K], tailcorrection: no
     He -   C_co2 [LENNARD_JONES] p_0/k_B:  17.15517 [K], p_1: 2.72000 [A], shift/k_B:  -0.00930512 [K], tailcorrection: no
     He -   O_co2 [LENNARD_JONES] p_0/k_B:  29.34451 [K], p_1: 2.84500 [A], shift/k_B:  -0.02084087 [K], tailcorrection: no
     He -    O_o2 [LENNARD_JONES] p_0/k_B:  22.91120 [K], p_1: 2.83657 [A], shift/k_B:  -0.01598491 [K], tailcorrection: no
     He -    N_n2 [LENNARD_JONES] p_0/k_B:  19.80909 [K], p_1: 2.97500 [A], shift/k_B:  -0.01839323 [K], tailcorrection: no
     He -      Ar [LENNARD_JONES] p_0/k_B:  36.13613 [K], p_1: 2.99000 [A], shift/k_B:  -0.03458099 [K], tailcorrection: no
     He -      Ow [LENNARD_JONES] p_0/k_B:  31.25699 [K], p_1: 2.86850 [A], shift/k_B:  -0.02332211 [K], tailcorrection: no
     He -      Hw [LENNARD_JONES] p_0/k_B:   9.13090 [K], p_1: 2.74321 [A], shift/k_B:  -0.00521169 [K], tailcorrection: no
     He -      Hw [LENNARD_JONES] p_0/k_B:   9.13090 [K], p_1: 2.74321 [A], shift/k_B:  -0.00521169 [K], tailcorrection: no
     He -      Lw [LENNARD_JONES] p_0/k_B:   9.13090 [K], p_1: 2.74321 [A], shift/k_B:  -0.00521169 [K], tailcorrection: no
     He -      Lw [LENNARD_JONES] p_0/k_B:   9.13090 [K], p_1: 2.74321 [A], shift/k_B:  -0.00521169 [K], tailcorrection: no
     He -  C_benz [LENNARD_JONES] p_0/k_B:  18.29289 [K], p_1: 3.12000 [A], shift/k_B:  -0.02259687 [K], tailcorrection: no
     He -  H_benz [LENNARD_JONES] p_0/k_B:  16.65548 [K], p_1: 2.50000 [A], shift/k_B:  -0.00544671 [K], tailcorrection: no
     He -   N_dmf [LENNARD_JONES] p_0/k_B:  29.52965 [K], p_1: 2.92000 [A], shift/k_B:  -0.02451533 [K], tailcorrection: no
     He -  Co_dmf [LENNARD_JONES] p_0/k_B:  23.34524 [K], p_1: 3.17000 [A], shift/k_B:  -0.03172333 [K], tailcorrection: no
     He -  Cm_dmf [LENNARD_JONES] p_0/k_B:  29.52965 [K], p_1: 3.22000 [A], shift/k_B:  -0.04407617 [K], tailcorrection: no
     He -   O_dmf [LENNARD_JONES] p_0/k_B:  33.01515 [K], p_1: 2.80000 [A], shift/k_B:  -0.02130904 [K], tailcorrection: no
     He -   H_dmf [LENNARD_JONES] p_0/k_B:   9.33809 [K], p_1: 2.42000 [A], shift/k_B:  -0.00251243 [K], tailcorrection: no
     He -      Cl [LENNARD_JONES] p_0/k_B:  39.41987 [K], p_1: 3.07966 [A], shift/k_B:  -0.04503811 [K], tailcorrection: no
     He -      Kr [LENNARD_JONES] p_0/k_B:  42.58826 [K], p_1: 3.13800 [A], shift/k_B:  -0.05445543 [K], tailcorrection: no
     He -      Xe [LENNARD_JONES] p_0/k_B:  49.08055 [K], p_1: 3.37000 [A], shift/k_B:  -0.09626052 [K], tailcorrection: no
     He -     Cu1 [LENNARD_JONES] p_0/k_B:   5.23694 [K], p_1: 2.87685 [A], shift/k_B:  -0.00397618 [K], tailcorrection: no
     He -      O1 [LENNARD_JONES] p_0/k_B:  22.91120 [K], p_1: 2.83657 [A], shift/k_B:  -0.01598491 [K], tailcorrection: no
     He -      C1 [LENNARD_JONES] p_0/k_B:  22.83928 [K], p_1: 3.05649 [A], shift/k_B:  -0.02493896 [K], tailcorrection: no
     He -      C2 [LENNARD_JONES] p_0/k_B:  22.83928 [K], p_1: 3.05649 [A], shift/k_B:  -0.02493896 [K], tailcorrection: no
     He -      C3 [LENNARD_JONES] p_0/k_B:  22.83928 [K], p_1: 3.05649 [A], shift/k_B:  -0.02493896 [K], tailcorrection: no
     He -      H1 [LENNARD_JONES] p_0/k_B:   9.13090 [K], p_1: 2.74321 [A], shift/k_B:  -0.00521169 [K], tailcorrection: no
CH4_sp3 - CH4_sp3 [LENNARD_JONES] p_0/k_B: 158.50000 [K], p_1: 3.72000 [A], shift/k_B:  -0.56217796 [K], tailcorrection: no
CH4_sp3 - CH3_sp3 [LENNARD_JONES] p_0/k_B: 130.83577 [K], p_1: 3.74000 [A], shift/k_B:  -0.47921501 [K], tailcorrection: no
CH4_sp3 - CH2_sp3 [LENNARD_JONES] p_0/k_B:  94.21253 [K], p_1: 3.84000 [A], shift/k_B:  -0.40420524 [K], tailcorrection: no
CH4_sp3 -  CH_sp3 [LENNARD_JONES] p_0/k_B:  51.90857 [K], p_1: 4.19500 [A], shift/k_B:  -0.37827707 [K], tailcorrection: no
CH4_sp3 -   C_sp3 [LENNARD_JONES] p_0/k_B:  11.26055 [K], p_1: 5.05000 [A], shift/k_B:  -0.24880626 [K], tailcorrection: no
CH4_sp3 -    H_h2 [LENNARD_JONES] p_0/k_B:  34.81889 [K], p_1: 3.28321 [A], shift/k_B:  -0.05839790 [K], tailcorrection: no
CH4_sp3 -   H_com [LENNARD_JONES] p_0/k_B:  76.26893 [K], p_1: 3.33900 [A], shift/k_B:  -0.14151976 [K], tailcorrection: no
CH4_sp3 -   C_co2 [LENNARD_JONES] p_0/k_B:  65.41789 [K], p_1: 3.26000 [A], shift/k_B:  -0.10514776 [K], tailcorrection: no
CH4_sp3 -   O_co2 [LENNARD_JONES] p_0/k_B: 111.89951 [K], p_1: 3.38500 [A], shift/k_B:  -0.22538960 [K], tailcorrection: no
CH4_sp3 -    O_o2 [LENNARD_JONES] p_0/k_B:  87.36738 [K], p_1: 3.37657 [A], shift/k_B:  -0.17336627 [K], tailcorrection: no
CH4_sp3 -    N_n2 [LENNARD_JONES] p_0/k_B:  75.53807 [K], p_1: 3.51500 [A], shift/k_B:  -0.19072867 [K], tailcorrection: no
CH4_sp3 -      Ar [LENNARD_JONES] p_0/k_B: 137.79804 [K], p_1: 3.53000 [A], shift/k_B:  -0.35692937 [K], tailcorrection: no
CH4_sp3 -      Ow [LENNARD_JONES] p_0/k_B: 119.19241 [K], p_1: 3.40850 [A], shift/k_B:  -0.25024924 [K], tailcorrection: no
CH4_sp3 -      Hw [LENNARD_JONES] p_0/k_B:  34.81889 [K], p_1: 3.28321 [A], shift/k_B:  -0.05839790 [K], tailcorrection: no
CH4_sp3 -      Hw [LENNARD_JONES] p_0/k_B:  34.81889 [K], p_1: 3.28321 [A], shift/k_B:  -0.05839790 [K], tailcorrection: no
CH4_sp3 -      Lw [LENNARD_JONES] p_0/k_B:  34.81889 [K], p_1: 3.28321 [A], shift/k_B:  -0.05839790 [K], tailcorrection: no
CH4_sp3 -      Lw [LENNARD_JONES] p_0/k_B:  34.81889 [K], p_1: 3.28321 [A], shift/k_B:  -0.05839790 [K], tailcorrection: no
CH4_sp3 -  C_benz [LENNARD_JONES] p_0/k_B:  69.75636 [K], p_1: 3.66000 [A], shift/k_B:  -0.22443630 [K], tailcorrection: no
CH4_sp3 -  H_benz [LENNARD_JONES] p_0/k_B:  63.51240 [K], p_1: 3.04000 [A], shift/k_B:  -0.06713635 [K], tailcorrection: no
CH4_sp3 -   N_dmf [LENNARD_JONES] p_0/k_B: 112.60551 [K], p_1: 3.46000 [A], shift/k_B:  -0.25866586 [K], tailcorrection: no
CH4_sp3 -  Co_dmf [LENNARD_JONES] p_0/k_B:  89.02247 [K], p_1: 3.71000 [A], shift/k_B:  -0.31069637 [K], tailcorrection: no
CH4_sp3 -  Cm_dmf [LENNARD_JONES] p_0/k_B: 112.60551 [K], p_1: 3.76000 [A], shift/k_B:  -0.42584155 [K], tailcorrection: no
CH4_sp3 -   O_dmf [LENNARD_JONES] p_0/k_B: 125.89678 [K], p_1: 3.34000 [A], shift/k_B:  -0.23402593 [K], tailcorrection: no
CH4_sp3 -   H_dmf [LENNARD_JONES] p_0/k_B:  35.60899 [K], p_1: 2.96000 [A], shift/k_B:  -0.03207632 [K], tailcorrection: no
CH4_sp3 -      Cl [LENNARD_JONES] p_0/k_B: 150.31992 [K], p_1: 3.61966 [A], shift/k_B:  -0.45255198 [K], tailcorrection: no
CH4_sp3 -      Kr [LENNARD_JONES] p_0/k_B: 162.40197 [K], p_1: 3.67800 [A], shift/k_B:  -0.53811358 [K], tailcorrection: no
CH4_sp3 -      Xe [LENNARD_JONES] p_0/k_B: 187.15902 [K], p_1: 3.91000 [A], shift/k_B:  -0.89479554 [K], tailcorrection: no
CH4_sp3 -     Cu1 [LENNARD_JONES] p_0/k_B:  19.97002 [K], p_1: 3.41685 [A], shift/k_B:  -0.04254723 [K], tailcorrection: no
CH4_sp3 -      O1 [LENNARD_JONES] p_0/k_B:  87.36738 [K], p_1: 3.37657 [A], shift/k_B:  -0.17336627 [K], tailcorrection: no
CH4_sp3 -      C1 [LENNARD_JONES] p_0/k_B:  87.09310 [K], p_1: 3.59649 [A], shift/k_B:  -0.25230052 [K], tailcorrection: no
CH4_sp3 -      C2 [LENNARD_JONES] p_0/k_B:  87.09310 [K], p_1: 3.59649 [A], shift/k_B:  -0.25230052 [K], tailcorrection: no
CH4_sp3 -      C3 [LENNARD_JONES] p_0/k_B:  87.09310 [K], p_1: 3.59649 [A], shift/k_B:  -0.25230052 [K], tailcorrection: no
CH4_sp3 -      H1 [LENNARD_JONES] p_0/k_B:  34.81889 [K], p_1: 3.28321 [A], shift/k_B:  -0.05839790 [K], tailcorrection: no
CH3_sp3 - CH3_sp3 [LENNARD_JONES] p_0/k_B: 108.00000 [K], p_1: 3.76000 [A], shift/k_B:  -0.40842485 [K], tailcorrection: no
CH3_sp3 - CH2_sp3 [LENNARD_JONES] p_0/k_B:  77.76889 [K], p_1: 3.86000 [A], shift/k_B:  -0.34420794 [K], tailcorrection: no
CH3_sp3 -  CH_sp3 [LENNARD_JONES] p_0/k_B:  42.84857 [K], p_1: 4.21500 [A], shift/k_B:  -0.32127575 [K], tailcorrection: no
CH3_sp3 -   C_sp3 [LENNARD_JONES] p_0/k_B:   9.29516 [K], p_1: 5.07000 [A], shift/k_B:  -0.21028090 [K], tailcorrection: no
CH3_sp3 -    H_h2 [LENNARD_JONES] p_0/k_B:  28.74168 [K], p_1: 3.30321 [A], shift/k_B:  -0.04999342 [K], tailcorrection: no
CH3_sp3 -   H_com [LENNARD_JONES] p_0/k_B:  62.95713 [K], p_1: 3.35900 [A], shift/k_B:  -0.12107891 [K], tailcorrection: no
CH3_sp3 -   C_co2 [LENNARD_JONES] p_0/k_B:  54.00000 [K], p_1: 3.28000 [A], shift/k_B:  -0.09003849 [K], tailcorrection: no
CH3_sp3 -   O_co2 [LENNARD_JONES] p_0/k_B:  92.36883 [K], p_1: 3.40500 [A], shift/k_B:  -0.19274091 [K], tailcorrection: no
CH3_sp3 -    O_o2 [LENNARD_JONES] p_0/k_B:  72.11848 [K], p_1: 3.39657 [A], shift/k_B:  -0.14826646 [K], tailcorrection: no
CH3_sp3 -    N_n2 [LENNARD_JONES] p_0/k_B:  62.35383 [K], p_1: 3.53500 [A], shift/k_B:  -0.16288768 [K], tailcorrection: no
CH3_sp3 -      Ar [LENNARD_JONES] p_0/k_B: 113.74709 [K], p_1: 3.55000 [A], shift/k_B:  -0.30478368 [K], tailcorrection: no
CH3_sp3 -      Ow [LENNARD_JONES] p_0/k_B:  98.38884 [K], p_1: 3.42850 [A], shift/k_B:  -0.21394739 [K], tailcorrection: no
CH3_sp3 -      Hw [LENNARD_JONES] p_0/k_B:  28.74168 [K], p_1: 3.30321 [A], shift/k_B:  -0.04999342 [K], tailcorrection: no
CH3_sp3 -      Hw [LENNARD_JONES] p_0/k_B:  28.74168 [K], p_1: 3.30321 [A], shift/k_B:  -0.04999342 [K], tailcorrection: no
CH3_sp3 -      Lw [LENNARD_JONES] p_0/k_B:  28.74168 [K], p_1: 3.30321 [A], shift/k_B:  -0.04999342 [K], tailcorrection: no
CH3_sp3 -      Lw [LENNARD_JONES] p_0/k_B:  28.74168 [K], p_1: 3.30321 [A], shift/k_B:  -0.04999342 [K], tailcorrection: no
CH3_sp3 -  C_benz [LENNARD_JONES] p_0/k_B:  57.58125 [K], p_1: 3.68000 [A], shift/k_B:  -0.19141639 [K], tailcorrection: no
CH3_sp3 -  H_benz [LENNARD_JONES] p_0/k_B:  52.42709 [K], p_1: 3.06000 [A], shift/k_B:  -0.05764179 [K], tailcorrection: no
CH3_sp3 -   N_dmf [LENNARD_JONES] p_0/k_B:  92.95160 [K], p_1: 3.48000 [A], shift/k_B:  -0.22102757 [K], tailcorrection: no
CH3_sp3 -  Co_dmf [LENNARD_JONES] p_0/k_B:  73.48469 [K], p_1: 3.73000 [A], shift/k_B:  -0.26486862 [K], tailcorrection: no
CH3_sp3 -  Cm_dmf [LENNARD_JONES] p_0/k_B:  92.95160 [K], p_1: 3.78000 [A], shift/k_B:  -0.36287388 [K], tailcorrection: no
CH3_sp3 -   O_dmf [LENNARD_JONES] p_0/k_B: 103.92305 [K], p_1: 3.36000 [A], shift/k_B:  -0.20022151 [K], tailcorrection: no
CH3_sp3 -   H_dmf [LENNARD_JONES] p_0/k_B:  29.39388 [K], p_1: 2.98000 [A], shift/k_B:  -0.02756926 [K], tailcorrection: no
CH3_sp3 -      Cl [LENNARD_JONES] p_0/k_B: 124.08342 [K], p_1: 3.63966 [A], shift/k_B:  -0.38611167 [K], tailcorrection: no
CH3_sp3 -      Kr [LENNARD_JONES] p_0/k_B: 134.05670 [K], p_1: 3.69800 [A], shift/k_B:  -0.45887075 [K], tailcorrection: no
CH3_sp3 -      Xe [LENNARD_JONES] p_0/k_B: 154.49272 [K], p_1: 3.93000 [A], shift/k_B:  -0.76155214 [K], tailcorrection: no
CH3_sp3 -     Cu1 [LENNARD_JONES] p_0/k_B:  16.48450 [K], p_1: 3.43684 [A], shift/k_B:  -0.03637209 [K], tailcorrection: no
CH3_sp3 -      O1 [LENNARD_JONES] p_0/k_B:  72.11848 [K], p_1: 3.39657 [A], shift/k_B:  -0.14826646 [K], tailcorrection: no
CH3_sp3 -      C1 [LENNARD_JONES] p_0/k_B:  71.89207 [K], p_1: 3.61649 [A], shift/k_B:  -0.21530553 [K], tailcorrection: no
CH3_sp3 -      C2 [LENNARD_JONES] p_0/k_B:  71.89207 [K], p_1: 3.61649 [A], shift/k_B:  -0.21530553 [K], tailcorrection: no
CH3_sp3 -      C3 [LENNARD_JONES] p_0/k_B:  71.89207 [K], p_1: 3.61649 [A], shift/k_B:  -0.21530553 [K], tailcorrection: no
CH3_sp3 -      H1 [LENNARD_JONES] p_0/k_B:  28.74168 [K], p_1: 3.30321 [A], shift/k_B:  -0.04999342 [K], tailcorrection: no
CH2_sp3 - CH2_sp3 [LENNARD_JONES] p_0/k_B:  56.00000 [K], p_1: 3.96000 [A], shift/k_B:  -0.28891522 [K], tailcorrection: no
CH2_sp3 -  CH_sp3 [LENNARD_JONES] p_0/k_B:  30.85450 [K], p_1: 4.31500 [A], shift/k_B:  -0.26621710 [K], tailcorrection: no
CH2_sp3 -   C_sp3 [LENNARD_JONES] p_0/k_B:   6.69328 [K], p_1: 5.17000 [A], shift/k_B:  -0.17012512 [K], tailcorrection: no
CH2_sp3 -    H_h2 [LENNARD_JONES] p_0/k_B:  20.69638 [K], p_1: 3.40321 [A], shift/k_B:  -0.04305002 [K], tailcorrection: no
CH2_sp3 -   H_com [LENNARD_JONES] p_0/k_B:  45.33431 [K], p_1: 3.45900 [A], shift/k_B:  -0.10395700 [K], tailcorrection: no
CH2_sp3 -   C_co2 [LENNARD_JONES] p_0/k_B:  38.88444 [K], p_1: 3.38000 [A], shift/k_B:  -0.07763038 [K], tailcorrection: no
CH2_sp3 -   O_co2 [LENNARD_JONES] p_0/k_B:  66.51316 [K], p_1: 3.50500 [A], shift/k_B:  -0.16509673 [K], tailcorrection: no
CH2_sp3 -    O_o2 [LENNARD_JONES] p_0/k_B:  51.93124 [K], p_1: 3.49657 [A], shift/k_B:  -0.12705519 [K], tailcorrection: no
CH2_sp3 -    N_n2 [LENNARD_JONES] p_0/k_B:  44.89989 [K], p_1: 3.63500 [A], shift/k_B:  -0.13864641 [K], tailcorrection: no
CH2_sp3 -      Ar [LENNARD_JONES] p_0/k_B:  81.90726 [K], p_1: 3.65000 [A], shift/k_B:  -0.25924362 [K], tailcorrection: no
CH2_sp3 -      Ow [LENNARD_JONES] p_0/k_B:  70.84806 [K], p_1: 3.52850 [A], shift/k_B:  -0.18304608 [K], tailcorrection: no
CH2_sp3 -      Hw [LENNARD_JONES] p_0/k_B:  20.69638 [K], p_1: 3.40321 [A], shift/k_B:  -0.04305002 [K], tailcorrection: no
CH2_sp3 -      Hw [LENNARD_JONES] p_0/k_B:  20.69638 [K], p_1: 3.40321 [A], shift/k_B:  -0.04305002 [K], tailcorrection: no
CH2_sp3 -      Lw [LENNARD_JONES] p_0/k_B:  20.69638 [K], p_1: 3.40321 [A], shift/k_B:  -0.04305002 [K], tailcorrection: no
CH2_sp3 -      Lw [LENNARD_JONES] p_0/k_B:  20.69638 [K], p_1: 3.40321 [A], shift/k_B:  -0.04305002 [K], tailcorrection: no
CH2_sp3 -  C_benz [LENNARD_JONES] p_0/k_B:  41.46324 [K], p_1: 3.78000 [A], shift/k_B:  -0.16186838 [K], tailcorrection: no
CH2_sp3 -  H_benz [LENNARD_JONES] p_0/k_B:  37.75182 [K], p_1: 3.16000 [A], shift/k_B:  -0.05033709 [K], tailcorrection: no
CH2_sp3 -   N_dmf [LENNARD_JONES] p_0/k_B:  66.93280 [K], p_1: 3.58000 [A], shift/k_B:  -0.18862679 [K], tailcorrection: no
CH2_sp3 -  Co_dmf [LENNARD_JONES] p_0/k_B:  52.91503 [K], p_1: 3.83000 [A], shift/k_B:  -0.22350377 [K], tailcorrection: no
CH2_sp3 -  Cm_dmf [LENNARD_JONES] p_0/k_B:  66.93280 [K], p_1: 3.88000 [A], shift/k_B:  -0.30556623 [K], tailcorrection: no
CH2_sp3 -   O_dmf [LENNARD_JONES] p_0/k_B:  74.83315 [K], p_1: 3.46000 [A], shift/k_B:  -0.17189906 [K], tailcorrection: no
CH2_sp3 -   H_dmf [LENNARD_JONES] p_0/k_B:  21.16601 [K], p_1: 3.08000 [A], shift/k_B:  -0.02419868 [K], tailcorrection: no
CH2_sp3 -      Cl [LENNARD_JONES] p_0/k_B:  89.35028 [K], p_1: 3.73966 [A], shift/k_B:  -0.32708688 [K], tailcorrection: no
CH2_sp3 -      Kr [LENNARD_JONES] p_0/k_B:  96.53186 [K], p_1: 3.79800 [A], shift/k_B:  -0.38773606 [K], tailcorrection: no
CH2_sp3 -      Xe [LENNARD_JONES] p_0/k_B: 111.24747 [K], p_1: 4.03000 [A], shift/k_B:  -0.63748422 [K], tailcorrection: no
CH2_sp3 -     Cu1 [LENNARD_JONES] p_0/k_B:  11.87020 [K], p_1: 3.53685 [A], shift/k_B:  -0.03110583 [K], tailcorrection: no
CH2_sp3 -      O1 [LENNARD_JONES] p_0/k_B:  51.93124 [K], p_1: 3.49657 [A], shift/k_B:  -0.12705519 [K], tailcorrection: no
CH2_sp3 -      C1 [LENNARD_JONES] p_0/k_B:  51.76821 [K], p_1: 3.71650 [A], shift/k_B:  -0.18258013 [K], tailcorrection: no
CH2_sp3 -      C2 [LENNARD_JONES] p_0/k_B:  51.76821 [K], p_1: 3.71650 [A], shift/k_B:  -0.18258013 [K], tailcorrection: no
CH2_sp3 -      C3 [LENNARD_JONES] p_0/k_B:  51.76821 [K], p_1: 3.71650 [A], shift/k_B:  -0.18258013 [K], tailcorrection: no
CH2_sp3 -      H1 [LENNARD_JONES] p_0/k_B:  20.69638 [K], p_1: 3.40321 [A], shift/k_B:  -0.04305002 [K], tailcorrection: no
 CH_sp3 -  CH_sp3 [LENNARD_JONES] p_0/k_B:  17.00000 [K], p_1: 4.67000 [A], shift/k_B:  -0.23540268 [K], tailcorrection: no
 CH_sp3 -   C_sp3 [LENNARD_JONES] p_0/k_B:   3.68782 [K], p_1: 5.52500 [A], shift/k_B:  -0.13918063 [K], tailcorrection: no
 CH_sp3 -    H_h2 [LENNARD_JONES] p_0/k_B:  11.40315 [K], p_1: 3.75821 [A], shift/k_B:  -0.04300051 [K], tailcorrection: no
 CH_sp3 -   H_com [LENNARD_JONES] p_0/k_B:  24.97799 [K], p_1: 3.81400 [A], shift/k_B:  -0.10288835 [K], tailcorrection: no
 CH_sp3 -   C_co2 [LENNARD_JONES] p_0/k_B:  21.42429 [K], p_1: 3.73500 [A], shift/k_B:  -0.07784441 [K], tailcorrection: no
 CH_sp3 -   O_co2 [LENNARD_JONES] p_0/k_B:  36.64696 [K], p_1: 3.86000 [A], shift/k_B:  -0.16220080 [K], tailcorrection: no
 CH_sp3 -    O_o2 [LENNARD_JONES] p_0/k_B:  28.61272 [K], p_1: 3.85157 [A], shift/k_B:  -0.12499330 [K], tailcorrection: no
 CH_sp3 -    N_n2 [LENNARD_JONES] p_0/k_B:  24.73863 [K], p_1: 3.99000 [A], shift/k_B:  -0.13353599 [K], tailcorrection: no
 CH_sp3 -      Ar [LENNARD_JONES] p_0/k_B:  45.12870 [K], p_1: 4.00500 [A], shift/k_B:  -0.24913794 [K], tailcorrection: no
 CH_sp3 -      Ow [LENNARD_JONES] p_0/k_B:  39.03538 [K], p_1: 3.88350 [A], shift/k_B:  -0.17917260 [K], tailcorrection: no
 CH_sp3 -      Hw [LENNARD_JONES] p_0/k_B:  11.40315 [K], p_1: 3.75821 [A], shift/k_B:  -0.04300051 [K], tailcorrection: no
 CH_sp3 -      Hw [LENNARD_JONES] p_0/k_B:  11.40315 [K], p_1: 3.75821 [A], shift/k_B:  -0.04300051 [K], tailcorrection: no
 CH_sp3 -      Lw [LENNARD_JONES] p_0/k_B:  11.40315 [K], p_1: 3.75821 [A], shift/k_B:  -0.04300051 [K], tailcorrection: no
 CH_sp3 -      Lw [LENNARD_JONES] p_0/k_B:  11.40315 [K], p_1: 3.75821 [A], shift/k_B:  -0.04300051 [K], tailcorrection: no
 CH_sp3 -  C_benz [LENNARD_JONES] p_0/k_B:  22.84513 [K], p_1: 4.13500 [A], shift/k_B:  -0.15271849 [K], tailcorrection: no
 CH_sp3 -  H_benz [LENNARD_JONES] p_0/k_B:  20.80024 [K], p_1: 3.51500 [A], shift/k_B:  -0.05251924 [K], tailcorrection: no
 CH_sp3 -   N_dmf [LENNARD_JONES] p_0/k_B:  36.87818 [K], p_1: 3.93500 [A], shift/k_B:  -0.18317664 [K], tailcorrection: no
 CH_sp3 -  Co_dmf [LENNARD_JONES] p_0/k_B:  29.15476 [K], p_1: 4.18500 [A], shift/k_B:  -0.20944628 [K], tailcorrection: no
 CH_sp3 -  Cm_dmf [LENNARD_JONES] p_0/k_B:  36.87818 [K], p_1: 4.23500 [A], shift/k_B:  -0.28446087 [K], tailcorrection: no
 CH_sp3 -   O_dmf [LENNARD_JONES] p_0/k_B:  41.23106 [K], p_1: 3.81500 [A], shift/k_B:  -0.17010442 [K], tailcorrection: no
 CH_sp3 -   H_dmf [LENNARD_JONES] p_0/k_B:  11.66190 [K], p_1: 3.43500 [A], shift/k_B:  -0.02564859 [K], tailcorrection: no
 CH_sp3 -      Cl [LENNARD_JONES] p_0/k_B:  49.22960 [K], p_1: 4.09466 [A], shift/k_B:  -0.31032724 [K], tailcorrection: no
 CH_sp3 -      Kr [LENNARD_JONES] p_0/k_B:  53.18646 [K], p_1: 4.15300 [A], shift/k_B:  -0.36492058 [K], tailcorrection: no
 CH_sp3 -      Xe [LENNARD_JONES] p_0/k_B:  61.29437 [K], p_1: 4.38500 [A], shift/k_B:  -0.58233847 [K], tailcorrection: no
 CH_sp3 -     Cu1 [LENNARD_JONES] p_0/k_B:   6.54016 [K], p_1: 3.89184 [A], shift/k_B:  -0.03040804 [K], tailcorrection: no
 CH_sp3 -      O1 [LENNARD_JONES] p_0/k_B:  28.61272 [K], p_1: 3.85157 [A], shift/k_B:  -0.12499330 [K], tailcorrection: no
 CH_sp3 -      C1 [LENNARD_JONES] p_0/k_B:  28.52289 [K], p_1: 4.07149 [A], shift/k_B:  -0.17379067 [K], tailcorrection: no
 CH_sp3 -      C2 [LENNARD_JONES] p_0/k_B:  28.52289 [K], p_1: 4.07149 [A], shift/k_B:  -0.17379067 [K], tailcorrection: no
 CH_sp3 -      C3 [LENNARD_JONES] p_0/k_B:  28.52289 [K], p_1: 4.07149 [A], shift/k_B:  -0.17379067 [K], tailcorrection: no
 CH_sp3 -      H1 [LENNARD_JONES] p_0/k_B:  11.40315 [K], p_1: 3.75821 [A], shift/k_B:  -0.04300051 [K], tailcorrection: no
  C_sp3 -   C_sp3 [LENNARD_JONES] p_0/k_B:   0.80000 [K], p_1: 6.38000 [A], shift/k_B:  -0.07064236 [K], tailcorrection: no
  C_sp3 -    H_h2 [LENNARD_JONES] p_0/k_B:   2.47369 [K], p_1: 4.61321 [A], shift/k_B:  -0.03183707 [K], tailcorrection: no
  C_sp3 -   H_com [LENNARD_JONES] p_0/k_B:   5.41849 [K], p_1: 4.66900 [A], shift/k_B:  -0.07493495 [K], tailcorrection: no
  C_sp3 -   C_co2 [LENNARD_JONES] p_0/k_B:   4.64758 [K], p_1: 4.59000 [A], shift/k_B:  -0.05803811 [K], tailcorrection: no
  C_sp3 -   O_co2 [LENNARD_JONES] p_0/k_B:   7.94984 [K], p_1: 4.71500 [A], shift/k_B:  -0.11657898 [K], tailcorrection: no
  C_sp3 -    O_o2 [LENNARD_JONES] p_0/k_B:   6.20697 [K], p_1: 4.70657 [A], shift/k_B:  -0.09005301 [K], tailcorrection: no
  C_sp3 -    N_n2 [LENNARD_JONES] p_0/k_B:   5.36656 [K], p_1: 4.84500 [A], shift/k_B:  -0.09258616 [K], tailcorrection: no
  C_sp3 -      Ar [LENNARD_JONES] p_0/k_B:   9.78979 [K], p_1: 4.86000 [A], shift/k_B:  -0.17204528 [K], tailcorrection: no
  C_sp3 -      Ow [LENNARD_JONES] p_0/k_B:   8.46796 [K], p_1: 4.73850 [A], shift/k_B:  -0.12792259 [K], tailcorrection: no
  C_sp3 -      Hw [LENNARD_JONES] p_0/k_B:   2.47369 [K], p_1: 4.61321 [A], shift/k_B:  -0.03183707 [K], tailcorrection: no
  C_sp3 -      Hw [LENNARD_JONES] p_0/k_B:   2.47369 [K], p_1: 4.61321 [A], shift/k_B:  -0.03183707 [K], tailcorrection: no
  C_sp3 -      Lw [LENNARD_JONES] p_0/k_B:   2.47369 [K], p_1: 4.61321 [A], shift/k_B:  -0.03183707 [K], tailcorrection: no
  C_sp3 -      Lw [LENNARD_JONES] p_0/k_B:   2.47369 [K], p_1: 4.61321 [A], shift/k_B:  -0.03183707 [K], tailcorrection: no
  C_sp3 -  C_benz [LENNARD_JONES] p_0/k_B:   4.95580 [K], p_1: 4.99000 [A], shift/k_B:  -0.10196209 [K], tailcorrection: no
  C_sp3 -  H_benz [LENNARD_JONES] p_0/k_B:   4.51221 [K], p_1: 4.37000 [A], shift/k_B:  -0.04199870 [K], tailcorrection: no
  C_sp3 -   N_dmf [LENNARD_JONES] p_0/k_B:   8.00000 [K], p_1: 4.79000 [A], shift/k_B:  -0.12891851 [K], tailcorrection: no
  C_sp3 -  Co_dmf [LENNARD_JONES] p_0/k_B:   6.32456 [K], p_1: 5.04000 [A], shift/k_B:  -0.13810052 [K], tailcorrection: no
  C_sp3 -  Cm_dmf [LENNARD_JONES] p_0/k_B:   8.00000 [K], p_1: 5.09000 [A], shift/k_B:  -0.18528168 [K], tailcorrection: no
  C_sp3 -   O_dmf [LENNARD_JONES] p_0/k_B:   8.94427 [K], p_1: 4.67000 [A], shift/k_B:  -0.12385327 [K], tailcorrection: no
  C_sp3 -   H_dmf [LENNARD_JONES] p_0/k_B:   2.52982 [K], p_1: 4.29000 [A], shift/k_B:  -0.02108136 [K], tailcorrection: no
  C_sp3 -      Cl [LENNARD_JONES] p_0/k_B:  10.67940 [K], p_1: 4.94966 [A], shift/k_B:  -0.20932814 [K], tailcorrection: no
  C_sp3 -      Kr [LENNARD_JONES] p_0/k_B:  11.53776 [K], p_1: 5.00800 [A], shift/k_B:  -0.24253786 [K], tailcorrection: no
  C_sp3 -      Xe [LENNARD_JONES] p_0/k_B:  13.29662 [K], p_1: 5.24000 [A], shift/k_B:  -0.36616773 [K], tailcorrection: no
  C_sp3 -     Cu1 [LENNARD_JONES] p_0/k_B:   1.41876 [K], p_1: 4.74685 [A], shift/k_B:  -0.02165931 [K], tailcorrection: no
  C_sp3 -      O1 [LENNARD_JONES] p_0/k_B:   6.20697 [K], p_1: 4.70657 [A], shift/k_B:  -0.09005301 [K], tailcorrection: no
  C_sp3 -      C1 [LENNARD_JONES] p_0/k_B:   6.18748 [K], p_1: 4.92650 [A], shift/k_B:  -0.11793170 [K], tailcorrection: no
  C_sp3 -      C2 [LENNARD_JONES] p_0/k_B:   6.18748 [K], p_1: 4.92650 [A], shift/k_B:  -0.11793170 [K], tailcorrection: no
  C_sp3 -      C3 [LENNARD_JONES] p_0/k_B:   6.18748 [K], p_1: 4.92650 [A], shift/k_B:  -0.11793170 [K], tailcorrection: no
  C_sp3 -      H1 [LENNARD_JONES] p_0/k_B:   2.47369 [K], p_1: 4.61321 [A], shift/k_B:  -0.03183707 [K], tailcorrection: no
   H_h2 -    H_h2 [LENNARD_JONES] p_0/k_B:   7.64893 [K], p_1: 2.84642 [A], shift/k_B:  -0.00544866 [K], tailcorrection: no
   H_h2 -   H_com [LENNARD_JONES] p_0/k_B:  16.75457 [K], p_1: 2.90221 [A], shift/k_B:  -0.01340886 [K], tailcorrection: no
   H_h2 -   C_co2 [LENNARD_JONES] p_0/k_B:  14.37084 [K], p_1: 2.82321 [A], shift/k_B:  -0.00974631 [K], tailcorrection: no
   H_h2 -   O_co2 [LENNARD_JONES] p_0/k_B:  24.58181 [K], p_1: 2.94821 [A], shift/k_B:  -0.02161929 [K], tailcorrection: no
   H_h2 -    O_o2 [LENNARD_JONES] p_0/k_B:  19.19265 [K], p_1: 2.93979 [A], shift/k_B:  -0.01659232 [K], tailcorrection: no
   H_h2 -    N_n2 [LENNARD_JONES] p_0/k_B:  16.59402 [K], p_1: 3.07821 [A], shift/k_B:  -0.01890557 [K], tailcorrection: no
   H_h2 -      Ar [LENNARD_JONES] p_0/k_B:  30.27114 [K], p_1: 3.09321 [A], shift/k_B:  -0.03550833 [K], tailcorrection: no
   H_h2 -      Ow [LENNARD_JONES] p_0/k_B:  26.18390 [K], p_1: 2.97171 [A], shift/k_B:  -0.02415156 [K], tailcorrection: no
   H_h2 -      Hw [LENNARD_JONES] p_0/k_B:   7.64893 [K], p_1: 2.84642 [A], shift/k_B:  -0.00544866 [K], tailcorrection: no
   H_h2 -      Hw [LENNARD_JONES] p_0/k_B:   7.64893 [K], p_1: 2.84642 [A], shift/k_B:  -0.00544866 [K], tailcorrection: no
   H_h2 -      Lw [LENNARD_JONES] p_0/k_B:   7.64893 [K], p_1: 2.84642 [A], shift/k_B:  -0.00544866 [K], tailcorrection: no
   H_h2 -      Lw [LENNARD_JONES] p_0/k_B:   7.64893 [K], p_1: 2.84642 [A], shift/k_B:  -0.00544866 [K], tailcorrection: no
   H_h2 -  C_benz [LENNARD_JONES] p_0/k_B:  15.32391 [K], p_1: 3.22321 [A], shift/k_B:  -0.02300968 [K], tailcorrection: no
   H_h2 -  H_benz [LENNARD_JONES] p_0/k_B:  13.95225 [K], p_1: 2.60321 [A], shift/k_B:  -0.00581603 [K], tailcorrection: no
   H_h2 -   N_dmf [LENNARD_JONES] p_0/k_B:  24.73690 [K], p_1: 3.02321 [A], shift/k_B:  -0.02529395 [K], tailcorrection: no
   H_h2 -  Co_dmf [LENNARD_JONES] p_0/k_B:  19.55624 [K], p_1: 3.27321 [A], shift/k_B:  -0.03220492 [K], tailcorrection: no
   H_h2 -  Cm_dmf [LENNARD_JONES] p_0/k_B:  24.73690 [K], p_1: 3.32321 [A], shift/k_B:  -0.04461374 [K], tailcorrection: no
   H_h2 -   O_dmf [LENNARD_JONES] p_0/k_B:  27.65670 [K], p_1: 2.90321 [A], shift/k_B:  -0.02217974 [K], tailcorrection: no
   H_h2 -   H_dmf [LENNARD_JONES] p_0/k_B:   7.82250 [K], p_1: 2.52321 [A], shift/k_B:  -0.00270396 [K], tailcorrection: no
   H_h2 -      Cl [LENNARD_JONES] p_0/k_B:  33.02191 [K], p_1: 3.18287 [A], shift/k_B:  -0.04597661 [K], tailcorrection: no
   H_h2 -      Kr [LENNARD_JONES] p_0/k_B:  35.67607 [K], p_1: 3.24121 [A], shift/k_B:  -0.05538904 [K], tailcorrection: no
   H_h2 -      Xe [LENNARD_JONES] p_0/k_B:  41.11464 [K], p_1: 3.47321 [A], shift/k_B:  -0.09662730 [K], tailcorrection: no
   H_h2 -     Cu1 [LENNARD_JONES] p_0/k_B:   4.38697 [K], p_1: 2.98006 [A], shift/k_B:  -0.00411510 [K], tailcorrection: no
   H_h2 -      O1 [LENNARD_JONES] p_0/k_B:  19.19265 [K], p_1: 2.93979 [A], shift/k_B:  -0.01659232 [K], tailcorrection: no
   H_h2 -      C1 [LENNARD_JONES] p_0/k_B:  19.13240 [K], p_1: 3.15970 [A], shift/k_B:  -0.02549626 [K], tailcorrection: no
   H_h2 -      C2 [LENNARD_JONES] p_0/k_B:  19.13240 [K], p_1: 3.15970 [A], shift/k_B:  -0.02549626 [K], tailcorrection: no
   H_h2 -      C3 [LENNARD_JONES] p_0/k_B:  19.13240 [K], p_1: 3.15970 [A], shift/k_B:  -0.02549626 [K], tailcorrection: no
   H_h2 -      H1 [LENNARD_JONES] p_0/k_B:   7.64893 [K], p_1: 2.84642 [A], shift/k_B:  -0.00544866 [K], tailcorrection: no
  H_com -   H_com [LENNARD_JONES] p_0/k_B:  36.70000 [K], p_1: 2.95800 [A], shift/k_B:  -0.03292533 [K], tailcorrection: no
  H_com -   C_co2 [LENNARD_JONES] p_0/k_B:  31.47856 [K], p_1: 2.87900 [A], shift/k_B:  -0.02400792 [K], tailcorrection: no
  H_com -   O_co2 [LENNARD_JONES] p_0/k_B:  53.84515 [K], p_1: 3.00400 [A], shift/k_B:  -0.05299218 [K], tailcorrection: no
  H_com -    O_o2 [LENNARD_JONES] p_0/k_B:  42.04048 [K], p_1: 2.99558 [A], shift/k_B:  -0.04068331 [K], tailcorrection: no
  H_com -    N_n2 [LENNARD_JONES] p_0/k_B:  36.34831 [K], p_1: 3.13400 [A], shift/k_B:  -0.04612251 [K], tailcorrection: no
  H_com -      Ar [LENNARD_JONES] p_0/k_B:  66.30731 [K], p_1: 3.14900 [A], shift/k_B:  -0.08658209 [K], tailcorrection: no
  H_com -      Ow [LENNARD_JONES] p_0/k_B:  57.35443 [K], p_1: 3.02750 [A], shift/k_B:  -0.05914696 [K], tailcorrection: no
  H_com -      Hw [LENNARD_JONES] p_0/k_B:  16.75457 [K], p_1: 2.90221 [A], shift/k_B:  -0.01340886 [K], tailcorrection: no
  H_com -      Hw [LENNARD_JONES] p_0/k_B:  16.75457 [K], p_1: 2.90221 [A], shift/k_B:  -0.01340886 [K], tailcorrection: no
  H_com -      Lw [LENNARD_JONES] p_0/k_B:  16.75457 [K], p_1: 2.90221 [A], shift/k_B:  -0.01340886 [K], tailcorrection: no
  H_com -      Lw [LENNARD_JONES] p_0/k_B:  16.75457 [K], p_1: 2.90221 [A], shift/k_B:  -0.01340886 [K], tailcorrection: no
  H_com -  C_benz [LENNARD_JONES] p_0/k_B:  33.56620 [K], p_1: 3.27900 [A], shift/k_B:  -0.05586534 [K], tailcorrection: no
  H_com -  H_benz [LENNARD_JONES] p_0/k_B:  30.56166 [K], p_1: 2.65900 [A], shift/k_B:  -0.01446799 [K], tailcorrection: no
  H_com -   N_dmf [LENNARD_JONES] p_0/k_B:  54.18487 [K], p_1: 3.07900 [A], shift/k_B:  -0.06182793 [K], tailcorrection: no
  H_com -  Co_dmf [LENNARD_JONES] p_0/k_B:  42.83690 [K], p_1: 3.32900 [A], shift/k_B:  -0.07806841 [K], tailcorrection: no
  H_com -  Cm_dmf [LENNARD_JONES] p_0/k_B:  54.18487 [K], p_1: 3.37900 [A], shift/k_B:  -0.10798493 [K], tailcorrection: no
  H_com -   O_dmf [LENNARD_JONES] p_0/k_B:  60.58052 [K], p_1: 2.95900 [A], shift/k_B:  -0.05446001 [K], tailcorrection: no
  H_com -   H_dmf [LENNARD_JONES] p_0/k_B:  17.13476 [K], p_1: 2.57900 [A], shift/k_B:  -0.00675330 [K], tailcorrection: no
  H_com -      Cl [LENNARD_JONES] p_0/k_B:  72.33274 [K], p_1: 3.23866 [A], shift/k_B:  -0.11177166 [K], tailcorrection: no
  H_com -      Kr [LENNARD_JONES] p_0/k_B:  78.14653 [K], p_1: 3.29700 [A], shift/k_B:  -0.13440302 [K], tailcorrection: no
  H_com -      Xe [LENNARD_JONES] p_0/k_B:  90.05942 [K], p_1: 3.52900 [A], shift/k_B:  -0.23287915 [K], tailcorrection: no
  H_com -     Cu1 [LENNARD_JONES] p_0/k_B:   9.60942 [K], p_1: 3.03585 [A], shift/k_B:  -0.01007472 [K], tailcorrection: no
  H_com -      O1 [LENNARD_JONES] p_0/k_B:  42.04048 [K], p_1: 2.99558 [A], shift/k_B:  -0.04068331 [K], tailcorrection: no
  H_com -      C1 [LENNARD_JONES] p_0/k_B:  41.90850 [K], p_1: 3.21549 [A], shift/k_B:  -0.06202987 [K], tailcorrection: no
  H_com -      C2 [LENNARD_JONES] p_0/k_B:  41.90850 [K], p_1: 3.21549 [A], shift/k_B:  -0.06202987 [K], tailcorrection: no
  H_com -      C3 [LENNARD_JONES] p_0/k_B:  41.90850 [K], p_1: 3.21549 [A], shift/k_B:  -0.06202987 [K], tailcorrection: no
  H_com -      H1 [LENNARD_JONES] p_0/k_B:  16.75457 [K], p_1: 2.90221 [A], shift/k_B:  -0.01340886 [K], tailcorrection: no
  C_co2 -   C_co2 [LENNARD_JONES] p_0/k_B:  27.00000 [K], p_1: 2.80000 [A], shift/k_B:  -0.01742667 [K], tailcorrection: no
  C_co2 -   O_co2 [LENNARD_JONES] p_0/k_B:  46.18441 [K], p_1: 2.92500 [A], shift/k_B:  -0.03873754 [K], tailcorrection: no
  C_co2 -    O_o2 [LENNARD_JONES] p_0/k_B:  36.05924 [K], p_1: 2.91657 [A], shift/k_B:  -0.02972613 [K], tailcorrection: no
  C_co2 -    N_n2 [LENNARD_JONES] p_0/k_B:  31.17691 [K], p_1: 3.05500 [A], shift/k_B:  -0.03394335 [K], tailcorrection: no
  C_co2 -      Ar [LENNARD_JONES] p_0/k_B:  56.87354 [K], p_1: 3.07000 [A], shift/k_B:  -0.06376631 [K], tailcorrection: no
  C_co2 -      Ow [LENNARD_JONES] p_0/k_B:  49.19442 [K], p_1: 2.94850 [A], shift/k_B:  -0.04329120 [K], tailcorrection: no
  C_co2 -      Hw [LENNARD_JONES] p_0/k_B:  14.37084 [K], p_1: 2.82321 [A], shift/k_B:  -0.00974631 [K], tailcorrection: no
  C_co2 -      Hw [LENNARD_JONES] p_0/k_B:  14.37084 [K], p_1: 2.82321 [A], shift/k_B:  -0.00974631 [K], tailcorrection: no
  C_co2 -      Lw [LENNARD_JONES] p_0/k_B:  14.37084 [K], p_1: 2.82321 [A], shift/k_B:  -0.00974631 [K], tailcorrection: no
  C_co2 -      Lw [LENNARD_JONES] p_0/k_B:  14.37084 [K], p_1: 2.82321 [A], shift/k_B:  -0.00974631 [K], tailcorrection: no
  C_co2 -  C_benz [LENNARD_JONES] p_0/k_B:  28.79062 [K], p_1: 3.20000 [A], shift/k_B:  -0.04139685 [K], tailcorrection: no
  C_co2 -  H_benz [LENNARD_JONES] p_0/k_B:  26.21355 [K], p_1: 2.58000 [A], shift/k_B:  -0.01035556 [K], tailcorrection: no
  C_co2 -   N_dmf [LENNARD_JONES] p_0/k_B:  46.47580 [K], p_1: 3.00000 [A], shift/k_B:  -0.04537544 [K], tailcorrection: no
  C_co2 -  Co_dmf [LENNARD_JONES] p_0/k_B:  36.74235 [K], p_1: 3.25000 [A], shift/k_B:  -0.05797866 [K], tailcorrection: no
  C_co2 -  Cm_dmf [LENNARD_JONES] p_0/k_B:  46.47580 [K], p_1: 3.30000 [A], shift/k_B:  -0.08037022 [K], tailcorrection: no
  C_co2 -   O_dmf [LENNARD_JONES] p_0/k_B:  51.96152 [K], p_1: 2.88000 [A], shift/k_B:  -0.03971242 [K], tailcorrection: no
  C_co2 -   H_dmf [LENNARD_JONES] p_0/k_B:  14.69694 [K], p_1: 2.50000 [A], shift/k_B:  -0.00480622 [K], tailcorrection: no
  C_co2 -      Cl [LENNARD_JONES] p_0/k_B:  62.04171 [K], p_1: 3.15966 [A], shift/k_B:  -0.08267109 [K], tailcorrection: no
  C_co2 -      Kr [LENNARD_JONES] p_0/k_B:  67.02835 [K], p_1: 3.21800 [A], shift/k_B:  -0.09967489 [K], tailcorrection: no
  C_co2 -      Xe [LENNARD_JONES] p_0/k_B:  77.24636 [K], p_1: 3.45000 [A], shift/k_B:  -0.17438928 [K], tailcorrection: no
  C_co2 -     Cu1 [LENNARD_JONES] p_0/k_B:   8.24225 [K], p_1: 2.95684 [A], shift/k_B:  -0.00737722 [K], tailcorrection: no
  C_co2 -      O1 [LENNARD_JONES] p_0/k_B:  36.05924 [K], p_1: 2.91657 [A], shift/k_B:  -0.02972613 [K], tailcorrection: no
  C_co2 -      C1 [LENNARD_JONES] p_0/k_B:  35.94603 [K], p_1: 3.13650 [A], shift/k_B:  -0.04583029 [K], tailcorrection: no
  C_co2 -      C2 [LENNARD_JONES] p_0/k_B:  35.94603 [K], p_1: 3.13650 [A], shift/k_B:  -0.04583029 [K], tailcorrection: no
  C_co2 -      C3 [LENNARD_JONES] p_0/k_B:  35.94603 [K], p_1: 3.13650 [A], shift/k_B:  -0.04583029 [K], tailcorrection: no
  C_co2 -      H1 [LENNARD_JONES] p_0/k_B:  14.37084 [K], p_1: 2.82321 [A], shift/k_B:  -0.00974631 [K], tailcorrection: no
  O_co2 -   O_co2 [LENNARD_JONES] p_0/k_B:  79.00000 [K], p_1: 3.05000 [A], shift/k_B:  -0.08516900 [K], tailcorrection: no
  O_co2 -    O_o2 [LENNARD_JONES] p_0/k_B:  61.68055 [K], p_1: 3.04157 [A], shift/k_B:  -0.06540286 [K], tailcorrection: no
  O_co2 -    N_n2 [LENNARD_JONES] p_0/k_B:  53.32917 [K], p_1: 3.18000 [A], shift/k_B:  -0.07384985 [K], tailcorrection: no
  O_co2 -      Ar [LENNARD_JONES] p_0/k_B:  97.28412 [K], p_1: 3.19500 [A], shift/k_B:  -0.13857501 [K], tailcorrection: no
  O_co2 -      Ow [LENNARD_JONES] p_0/k_B:  84.14872 [K], p_1: 3.07350 [A], shift/k_B:  -0.09499412 [K], tailcorrection: no
  O_co2 -      Hw [LENNARD_JONES] p_0/k_B:  24.58181 [K], p_1: 2.94821 [A], shift/k_B:  -0.02161929 [K], tailcorrection: no
  O_co2 -      Hw [LENNARD_JONES] p_0/k_B:  24.58181 [K], p_1: 2.94821 [A], shift/k_B:  -0.02161929 [K], tailcorrection: no
  O_co2 -      Lw [LENNARD_JONES] p_0/k_B:  24.58181 [K], p_1: 2.94821 [A], shift/k_B:  -0.02161929 [K], tailcorrection: no
  O_co2 -      Lw [LENNARD_JONES] p_0/k_B:  24.58181 [K], p_1: 2.94821 [A], shift/k_B:  -0.02161929 [K], tailcorrection: no
  O_co2 -  C_benz [LENNARD_JONES] p_0/k_B:  49.24733 [K], p_1: 3.32500 [A], shift/k_B:  -0.08910633 [K], tailcorrection: no
  O_co2 -  H_benz [LENNARD_JONES] p_0/k_B:  44.83916 [K], p_1: 2.70500 [A], shift/k_B:  -0.02352754 [K], tailcorrection: no
  O_co2 -   N_dmf [LENNARD_JONES] p_0/k_B:  79.49843 [K], p_1: 3.12500 [A], shift/k_B:  -0.09915068 [K], tailcorrection: no
  O_co2 -  Co_dmf [LENNARD_JONES] p_0/k_B:  62.84903 [K], p_1: 3.37500 [A], shift/k_B:  -0.12436516 [K], tailcorrection: no
  O_co2 -  Cm_dmf [LENNARD_JONES] p_0/k_B:  79.49843 [K], p_1: 3.42500 [A], shift/k_B:  -0.17181444 [K], tailcorrection: no
  O_co2 -   O_dmf [LENNARD_JONES] p_0/k_B:  88.88194 [K], p_1: 3.00500 [A], shift/k_B:  -0.08764877 [K], tailcorrection: no
  O_co2 -   H_dmf [LENNARD_JONES] p_0/k_B:  25.13961 [K], p_1: 2.62500 [A], shift/k_B:  -0.01101690 [K], tailcorrection: no
  O_co2 -      Cl [LENNARD_JONES] p_0/k_B: 106.12445 [K], p_1: 3.28466 [A], shift/k_B:  -0.17846283 [K], tailcorrection: no
  O_co2 -      Kr [LENNARD_JONES] p_0/k_B: 114.65426 [K], p_1: 3.34300 [A], shift/k_B:  -0.21427817 [K], tailcorrection: no
  O_co2 -      Xe [LENNARD_JONES] p_0/k_B: 132.13251 [K], p_1: 3.57500 [A], shift/k_B:  -0.36926210 [K], tailcorrection: no
  O_co2 -     Cu1 [LENNARD_JONES] p_0/k_B:  14.09865 [K], p_1: 3.08184 [A], shift/k_B:  -0.01617671 [K], tailcorrection: no
  O_co2 -      O1 [LENNARD_JONES] p_0/k_B:  61.68055 [K], p_1: 3.04157 [A], shift/k_B:  -0.06540286 [K], tailcorrection: no
  O_co2 -      C1 [LENNARD_JONES] p_0/k_B:  61.48691 [K], p_1: 3.26150 [A], shift/k_B:  -0.09910153 [K], tailcorrection: no
  O_co2 -      C2 [LENNARD_JONES] p_0/k_B:  61.48691 [K], p_1: 3.26150 [A], shift/k_B:  -0.09910153 [K], tailcorrection: no
  O_co2 -      C3 [LENNARD_JONES] p_0/k_B:  61.48691 [K], p_1: 3.26150 [A], shift/k_B:  -0.09910153 [K], tailcorrection: no
  O_co2 -      H1 [LENNARD_JONES] p_0/k_B:  24.58181 [K], p_1: 2.94821 [A], shift/k_B:  -0.02161929 [K], tailcorrection: no
   O_o2 -    O_o2 [LENNARD_JONES] p_0/k_B:  48.15810 [K], p_1: 3.03315 [A], shift/k_B:  -0.05022176 [K], tailcorrection: no
   O_o2 -    N_n2 [LENNARD_JONES] p_0/k_B:  41.63762 [K], p_1: 3.17157 [A], shift/k_B:  -0.05674927 [K], tailcorrection: no
   O_o2 -      Ar [LENNARD_JONES] p_0/k_B:  75.95617 [K], p_1: 3.18657 [A], shift/k_B:  -0.10649474 [K], tailcorrection: no
   O_o2 -      Ow [LENNARD_JONES] p_0/k_B:  65.70049 [K], p_1: 3.06508 [A], shift/k_B:  -0.07295703 [K], tailcorrection: no
   O_o2 -      Hw [LENNARD_JONES] p_0/k_B:  19.19265 [K], p_1: 2.93979 [A], shift/k_B:  -0.01659232 [K], tailcorrection: no
   O_o2 -      Hw [LENNARD_JONES] p_0/k_B:  19.19265 [K], p_1: 2.93979 [A], shift/k_B:  -0.01659232 [K], tailcorrection: no
   O_o2 -      Lw [LENNARD_JONES] p_0/k_B:  19.19265 [K], p_1: 2.93979 [A], shift/k_B:  -0.01659232 [K], tailcorrection: no
   O_o2 -      Lw [LENNARD_JONES] p_0/k_B:  19.19265 [K], p_1: 2.93979 [A], shift/k_B:  -0.01659232 [K], tailcorrection: no
   O_o2 -  C_benz [LENNARD_JONES] p_0/k_B:  38.45067 [K], p_1: 3.31658 [A], shift/k_B:  -0.06852069 [K], tailcorrection: no
   O_o2 -  H_benz [LENNARD_JONES] p_0/k_B:  35.00891 [K], p_1: 2.69658 [A], shift/k_B:  -0.01802894 [K], tailcorrection: no
   O_o2 -   N_dmf [LENNARD_JONES] p_0/k_B:  62.06970 [K], p_1: 3.11658 [A], shift/k_B:  -0.07617007 [K], tailcorrection: no
   O_o2 -  Co_dmf [LENNARD_JONES] p_0/k_B:  49.07041 [K], p_1: 3.36658 [A], shift/k_B:  -0.09565554 [K], tailcorrection: no
   O_o2 -  Cm_dmf [LENNARD_JONES] p_0/k_B:  62.06970 [K], p_1: 3.41657 [A], shift/k_B:  -0.13218024 [K], tailcorrection: no
   O_o2 -   O_dmf [LENNARD_JONES] p_0/k_B:  69.39604 [K], p_1: 2.99657 [A], shift/k_B:  -0.06729035 [K], tailcorrection: no
   O_o2 -   H_dmf [LENNARD_JONES] p_0/k_B:  19.62816 [K], p_1: 2.61658 [A], shift/k_B:  -0.00843732 [K], tailcorrection: no
   O_o2 -      Cl [LENNARD_JONES] p_0/k_B:  82.85840 [K], p_1: 3.27623 [A], shift/k_B:  -0.13720800 [K], tailcorrection: no
   O_o2 -      Kr [LENNARD_JONES] p_0/k_B:  89.51820 [K], p_1: 3.33458 [A], shift/k_B:  -0.16478846 [K], tailcorrection: no
   O_o2 -      Xe [LENNARD_JONES] p_0/k_B: 103.16463 [K], p_1: 3.56657 [A], shift/k_B:  -0.28425756 [K], tailcorrection: no
   O_o2 -     Cu1 [LENNARD_JONES] p_0/k_B:  11.00775 [K], p_1: 3.07342 [A], shift/k_B:  -0.01242453 [K], tailcorrection: no
   O_o2 -      O1 [LENNARD_JONES] p_0/k_B:  48.15810 [K], p_1: 3.03315 [A], shift/k_B:  -0.05022176 [K], tailcorrection: no
   O_o2 -      C1 [LENNARD_JONES] p_0/k_B:  48.00691 [K], p_1: 3.25307 [A], shift/k_B:  -0.07618410 [K], tailcorrection: no
   O_o2 -      C2 [LENNARD_JONES] p_0/k_B:  48.00691 [K], p_1: 3.25307 [A], shift/k_B:  -0.07618410 [K], tailcorrection: no
   O_o2 -      C3 [LENNARD_JONES] p_0/k_B:  48.00691 [K], p_1: 3.25307 [A], shift/k_B:  -0.07618410 [K], tailcorrection: no
   O_o2 -      H1 [LENNARD_JONES] p_0/k_B:  19.19265 [K], p_1: 2.93979 [A], shift/k_B:  -0.01659232 [K], tailcorrection: no
   N_n2 -    N_n2 [LENNARD_JONES] p_0/k_B:  36.00000 [K], p_1: 3.31000 [A], shift/k_B:  -0.06339451 [K], tailcorrection: no
   N_n2 -      Ar [LENNARD_JONES] p_0/k_B:  65.67191 [K], p_1: 3.32500 [A], shift/k_B:  -0.11882436 [K], tailcorrection: no
   N_n2 -      Ow [LENNARD_JONES] p_0/k_B:  56.80482 [K], p_1: 3.20350 [A], shift/k_B:  -0.08221459 [K], tailcorrection: no
   N_n2 -      Hw [LENNARD_JONES] p_0/k_B:  16.59402 [K], p_1: 3.07821 [A], shift/k_B:  -0.01890557 [K], tailcorrection: no
   N_n2 -      Hw [LENNARD_JONES] p_0/k_B:  16.59402 [K], p_1: 3.07821 [A], shift/k_B:  -0.01890557 [K], tailcorrection: no
   N_n2 -      Lw [LENNARD_JONES] p_0/k_B:  16.59402 [K], p_1: 3.07821 [A], shift/k_B:  -0.01890557 [K], tailcorrection: no
   N_n2 -      Lw [LENNARD_JONES] p_0/k_B:  16.59402 [K], p_1: 3.07821 [A], shift/k_B:  -0.01890557 [K], tailcorrection: no
   N_n2 -  C_benz [LENNARD_JONES] p_0/k_B:  33.24455 [K], p_1: 3.45500 [A], shift/k_B:  -0.07570661 [K], tailcorrection: no
   N_n2 -  H_benz [LENNARD_JONES] p_0/k_B:  30.26880 [K], p_1: 2.83500 [A], shift/k_B:  -0.02104798 [K], tailcorrection: no
   N_n2 -   N_dmf [LENNARD_JONES] p_0/k_B:  53.66563 [K], p_1: 3.25500 [A], shift/k_B:  -0.08546764 [K], tailcorrection: no
   N_n2 -  Co_dmf [LENNARD_JONES] p_0/k_B:  42.42641 [K], p_1: 3.50500 [A], shift/k_B:  -0.10530940 [K], tailcorrection: no
   N_n2 -  Cm_dmf [LENNARD_JONES] p_0/k_B:  53.66563 [K], p_1: 3.55500 [A], shift/k_B:  -0.14501493 [K], tailcorrection: no
   N_n2 -   O_dmf [LENNARD_JONES] p_0/k_B:  60.00000 [K], p_1: 3.13500 [A], shift/k_B:  -0.07628004 [K], tailcorrection: no
   N_n2 -   H_dmf [LENNARD_JONES] p_0/k_B:  16.97056 [K], p_1: 2.75500 [A], shift/k_B:  -0.00993882 [K], tailcorrection: no
   N_n2 -      Cl [LENNARD_JONES] p_0/k_B:  71.63960 [K], p_1: 3.41466 [A], shift/k_B:  -0.15204769 [K], tailcorrection: no
   N_n2 -      Kr [LENNARD_JONES] p_0/k_B:  77.39767 [K], p_1: 3.47300 [A], shift/k_B:  -0.18183347 [K], tailcorrection: no
   N_n2 -      Xe [LENNARD_JONES] p_0/k_B:  89.19641 [K], p_1: 3.70500 [A], shift/k_B:  -0.30879681 [K], tailcorrection: no
   N_n2 -     Cu1 [LENNARD_JONES] p_0/k_B:   9.51733 [K], p_1: 3.21185 [A], shift/k_B:  -0.01399122 [K], tailcorrection: no
   N_n2 -      O1 [LENNARD_JONES] p_0/k_B:  41.63762 [K], p_1: 3.17157 [A], shift/k_B:  -0.05674927 [K], tailcorrection: no
   N_n2 -      C1 [LENNARD_JONES] p_0/k_B:  41.50691 [K], p_1: 3.39149 [A], shift/k_B:  -0.08457044 [K], tailcorrection: no
   N_n2 -      C2 [LENNARD_JONES] p_0/k_B:  41.50691 [K], p_1: 3.39149 [A], shift/k_B:  -0.08457044 [K], tailcorrection: no
   N_n2 -      C3 [LENNARD_JONES] p_0/k_B:  41.50691 [K], p_1: 3.39149 [A], shift/k_B:  -0.08457044 [K], tailcorrection: no
   N_n2 -      H1 [LENNARD_JONES] p_0/k_B:  16.59402 [K], p_1: 3.07821 [A], shift/k_B:  -0.01890557 [K], tailcorrection: no
     Ar -      Ar [LENNARD_JONES] p_0/k_B: 119.80000 [K], p_1: 3.34000 [A], shift/k_B:  -0.22269280 [K], tailcorrection: no
     Ar -      Ow [LENNARD_JONES] p_0/k_B: 103.62448 [K], p_1: 3.21850 [A], shift/k_B:  -0.15423903 [K], tailcorrection: no
     Ar -      Hw [LENNARD_JONES] p_0/k_B:  30.27114 [K], p_1: 3.09321 [A], shift/k_B:  -0.03550833 [K], tailcorrection: no
     Ar -      Hw [LENNARD_JONES] p_0/k_B:  30.27114 [K], p_1: 3.09321 [A], shift/k_B:  -0.03550833 [K], tailcorrection: no
     Ar -      Lw [LENNARD_JONES] p_0/k_B:  30.27114 [K], p_1: 3.09321 [A], shift/k_B:  -0.03550833 [K], tailcorrection: no
     Ar -      Lw [LENNARD_JONES] p_0/k_B:  30.27114 [K], p_1: 3.09321 [A], shift/k_B:  -0.03550833 [K], tailcorrection: no
     Ar -  C_benz [LENNARD_JONES] p_0/k_B:  60.64536 [K], p_1: 3.47000 [A], shift/k_B:  -0.14174018 [K], tailcorrection: no
     Ar -  H_benz [LENNARD_JONES] p_0/k_B:  55.21694 [K], p_1: 2.85000 [A], shift/k_B:  -0.03963109 [K], tailcorrection: no
     Ar -   N_dmf [LENNARD_JONES] p_0/k_B:  97.89791 [K], p_1: 3.27000 [A], shift/k_B:  -0.16027086 [K], tailcorrection: no
     Ar -  Co_dmf [LENNARD_JONES] p_0/k_B:  77.39509 [K], p_1: 3.52000 [A], shift/k_B:  -0.19709026 [K], tailcorrection: no
     Ar -  Cm_dmf [LENNARD_JONES] p_0/k_B:  97.89791 [K], p_1: 3.57000 [A], shift/k_B:  -0.27130264 [K], tailcorrection: no
     Ar -   O_dmf [LENNARD_JONES] p_0/k_B: 109.45319 [K], p_1: 3.15000 [A], shift/k_B:  -0.14319311 [K], tailcorrection: no
     Ar -   H_dmf [LENNARD_JONES] p_0/k_B:  30.95804 [K], p_1: 2.77000 [A], shift/k_B:  -0.01873091 [K], tailcorrection: no
     Ar -      Cl [LENNARD_JONES] p_0/k_B: 130.68637 [K], p_1: 3.42966 [A], shift/k_B:  -0.28475572 [K], tailcorrection: no
     Ar -      Kr [LENNARD_JONES] p_0/k_B: 141.19037 [K], p_1: 3.48800 [A], shift/k_B:  -0.34038816 [K], tailcorrection: no
     Ar -      Xe [LENNARD_JONES] p_0/k_B: 162.71386 [K], p_1: 3.72000 [A], shift/k_B:  -0.57712394 [K], tailcorrection: no
     Ar -     Cu1 [LENNARD_JONES] p_0/k_B:  17.36170 [K], p_1: 3.22684 [A], shift/k_B:  -0.02624637 [K], tailcorrection: no
     Ar -      O1 [LENNARD_JONES] p_0/k_B:  75.95617 [K], p_1: 3.18657 [A], shift/k_B:  -0.10649474 [K], tailcorrection: no
     Ar -      C1 [LENNARD_JONES] p_0/k_B:  75.71772 [K], p_1: 3.40649 [A], shift/k_B:  -0.15841242 [K], tailcorrection: no
     Ar -      C2 [LENNARD_JONES] p_0/k_B:  75.71772 [K], p_1: 3.40649 [A], shift/k_B:  -0.15841242 [K], tailcorrection: no
     Ar -      C3 [LENNARD_JONES] p_0/k_B:  75.71772 [K], p_1: 3.40649 [A], shift/k_B:  -0.15841242 [K], tailcorrection: no
     Ar -      H1 [LENNARD_JONES] p_0/k_B:  30.27114 [K], p_1: 3.09321 [A], shift/k_B:  -0.03550833 [K], tailcorrection: no
     Ow -      Ow [LENNARD_JONES] p_0/k_B:  89.63300 [K], p_1: 3.09700 [A], shift/k_B:  -0.10591545 [K], tailcorrection: no
     Ow -      Hw [LENNARD_JONES] p_0/k_B:  26.18390 [K], p_1: 2.97171 [A], shift/k_B:  -0.02415156 [K], tailcorrection: no
     Ow -      Hw [LENNARD_JONES] p_0/k_B:  26.18390 [K], p_1: 2.97171 [A], shift/k_B:  -0.02415156 [K], tailcorrection: no
     Ow -      Lw [LENNARD_JONES] p_0/k_B:  26.18390 [K], p_1: 2.97171 [A], shift/k_B:  -0.02415156 [K], tailcorrection: no
     Ow -      Lw [LENNARD_JONES] p_0/k_B:  26.18390 [K], p_1: 2.97171 [A], shift/k_B:  -0.02415156 [K], tailcorrection: no
     Ow -  C_benz [LENNARD_JONES] p_0/k_B:  52.45696 [K], p_1: 3.34850 [A], shift/k_B:  -0.09900849 [K], tailcorrection: no
     Ow -  H_benz [LENNARD_JONES] p_0/k_B:  47.76149 [K], p_1: 2.72850 [A], shift/k_B:  -0.02639576 [K], tailcorrection: no
     Ow -   N_dmf [LENNARD_JONES] p_0/k_B:  84.67963 [K], p_1: 3.14850 [A], shift/k_B:  -0.11046685 [K], tailcorrection: no
     Ow -  Co_dmf [LENNARD_JONES] p_0/k_B:  66.94513 [K], p_1: 3.39850 [A], shift/k_B:  -0.13809914 [K], tailcorrection: no
     Ow -  Cm_dmf [LENNARD_JONES] p_0/k_B:  84.67963 [K], p_1: 3.44850 [A], shift/k_B:  -0.19067255 [K], tailcorrection: no
     Ow -   O_dmf [LENNARD_JONES] p_0/k_B:  94.67471 [K], p_1: 3.02850 [A], shift/k_B:  -0.09782722 [K], tailcorrection: no
     Ow -   H_dmf [LENNARD_JONES] p_0/k_B:  26.77805 [K], p_1: 2.64850 [A], shift/k_B:  -0.01237944 [K], tailcorrection: no
     Ow -      Cl [LENNARD_JONES] p_0/k_B: 113.04096 [K], p_1: 3.30816 [A], shift/k_B:  -0.19839774 [K], tailcorrection: no
     Ow -      Kr [LENNARD_JONES] p_0/k_B: 122.12670 [K], p_1: 3.36650 [A], shift/k_B:  -0.23803624 [K], tailcorrection: no
     Ow -      Xe [LENNARD_JONES] p_0/k_B: 140.74407 [K], p_1: 3.59850 [A], shift/k_B:  -0.40908705 [K], tailcorrection: no
     Ow -     Cu1 [LENNARD_JONES] p_0/k_B:  15.01751 [K], p_1: 3.10534 [A], shift/k_B:  -0.01803429 [K], tailcorrection: no
     Ow -      O1 [LENNARD_JONES] p_0/k_B:  65.70049 [K], p_1: 3.06508 [A], shift/k_B:  -0.07295703 [K], tailcorrection: no
     Ow -      C1 [LENNARD_JONES] p_0/k_B:  65.49423 [K], p_1: 3.28499 [A], shift/k_B:  -0.11020494 [K], tailcorrection: no
     Ow -      C2 [LENNARD_JONES] p_0/k_B:  65.49423 [K], p_1: 3.28499 [A], shift/k_B:  -0.11020494 [K], tailcorrection: no
     Ow -      C3 [LENNARD_JONES] p_0/k_B:  65.49423 [K], p_1: 3.28499 [A], shift/k_B:  -0.11020494 [K], tailcorrection: no
     Ow -      H1 [LENNARD_JONES] p_0/k_B:  26.18390 [K], p_1: 2.97171 [A], shift/k_B:  -0.02415156 [K], tailcorrection: no
     Hw -      Hw [LENNARD_JONES] p_0/k_B:   7.64893 [K], p_1: 2.84642 [A], shift/k_B:  -0.00544866 [K], tailcorrection: no
     Hw -      Hw [LENNARD_JONES] p_0/k_B:   7.64893 [K], p_1: 2.84642 [A], shift/k_B:  -0.00544866 [K], tailcorrection: no
     Hw -      Lw [LENNARD_JONES] p_0/k_B:   7.64893 [K], p_1: 2.84642 [A], shift/k_B:  -0.00544866 [K], tailcorrection: no
     Hw -      Lw [LENNARD_JONES] p_0/k_B:   7.64893 [K], p_1: 2.84642 [A], shift/k_B:  -0.00544866 [K], tailcorrection: no
     Hw -  C_benz [LENNARD_JONES] p_0/k_B:  15.32391 [K], p_1: 3.22321 [A], shift/k_B:  -0.02300968 [K], tailcorrection: no
     Hw -  H_benz [LENNARD_JONES] p_0/k_B:  13.95225 [K], p_1: 2.60321 [A], shift/k_B:  -0.00581603 [K], tailcorrection: no
     Hw -   N_dmf [LENNARD_JONES] p_0/k_B:  24.73690 [K], p_1: 3.02321 [A], shift/k_B:  -0.02529395 [K], tailcorrection: no
     Hw -  Co_dmf [LENNARD_JONES] p_0/k_B:  19.55624 [K], p_1: 3.27321 [A], shift/k_B:  -0.03220492 [K], tailcorrection: no
     Hw -  Cm_dmf [LENNARD_JONES] p_0/k_B:  24.73690 [K], p_1: 3.32321 [A], shift/k_B:  -0.04461374 [K], tailcorrection: no
     Hw -   O_dmf [LENNARD_JONES] p_0/k_B:  27.65670 [K], p_1: 2.90321 [A], shift/k_B:  -0.02217974 [K], tailcorrection: no
     Hw -   H_dmf [LENNARD_JONES] p_0/k_B:   7.82250 [K], p_1: 2.52321 [A], shift/k_B:  -0.00270396 [K], tailcorrection: no
     Hw -      Cl [LENNARD_JONES] p_0/k_B:  33.02191 [K], p_1: 3.18287 [A], shift/k_B:  -0.04597661 [K], tailcorrection: no
     Hw -      Kr [LENNARD_JONES] p_0/k_B:  35.67607 [K], p_1: 3.24121 [A], shift/k_B:  -0.05538904 [K], tailcorrection: no
     Hw -      Xe [LENNARD_JONES] p_0/k_B:  41.11464 [K], p_1: 3.47321 [A], shift/k_B:  -0.09662730 [K], tailcorrection: no
     Hw -     Cu1 [LENNARD_JONES] p_0/k_B:   4.38697 [K], p_1: 2.98006 [A], shift/k_B:  -0.00411510 [K], tailcorrection: no
     Hw -      O1 [LENNARD_JONES] p_0/k_B:  19.19265 [K], p_1: 2.93979 [A], shift/k_B:  -0.01659232 [K], tailcorrection: no
     Hw -      C1 [LENNARD_JONES] p_0/k_B:  19.13240 [K], p_1: 3.15970 [A], shift/k_B:  -0.02549626 [K], tailcorrection: no
     Hw -      C2 [LENNARD_JONES] p_0/k_B:  19.13240 [K], p_1: 3.15970 [A], shift/k_B:  -0.02549626 [K], tailcorrection: no
     Hw -      C3 [LENNARD_JONES] p_0/k_B:  19.13240 [K], p_1: 3.15970 [A], shift/k_B:  -0.02549626 [K], tailcorrection: no
     Hw -      H1 [LENNARD_JONES] p_0/k_B:   7.64893 [K], p_1: 2.84642 [A], shift/k_B:  -0.00544866 [K], tailcorrection: no
     Hw -      Hw [LENNARD_JONES] p_0/k_B:   7.64893 [K], p_1: 2.84642 [A], shift/k_B:  -0.00544866 [K], tailcorrection: no
     Hw -      Lw [LENNARD_JONES] p_0/k_B:   7.64893 [K], p_1: 2.84642 [A], shift/k_B:  -0.00544866 [K], tailcorrection: no
     Hw -      Lw [LENNARD_JONES] p_0/k_B:   7.64893 [K], p_1: 2.84642 [A], shift/k_B:  -0.00544866 [K], tailcorrection: no
     Hw -  C_benz [LENNARD_JONES] p_0/k_B:  15.32391 [K], p_1: 3.22321 [A], shift/k_B:  -0.02300968 [K], tailcorrection: no
     Hw -  H_benz [LENNARD_JONES] p_0/k_B:  13.95225 [K], p_1: 2.60321 [A], shift/k_B:  -0.00581603 [K], tailcorrection: no
     Hw -   N_dmf [LENNARD_JONES] p_0/k_B:  24.73690 [K], p_1: 3.02321 [A], shift/k_B:  -0.02529395 [K], tailcorrection: no
     Hw -  Co_dmf [LENNARD_JONES] p_0/k_B:  19.55624 [K], p_1: 3.27321 [A], shift/k_B:  -0.03220492 [K], tailcorrection: no
     Hw -  Cm_dmf [LENNARD_JONES] p_0/k_B:  24.73690 [K], p_1: 3.32321 [A], shift/k_B:  -0.04461374 [K], tailcorrection: no
     Hw -   O_dmf [LENNARD_JONES] p_0/k_B:  27.65670 [K], p_1: 2.90321 [A], shift/k_B:  -0.02217974 [K], tailcorrection: no
     Hw -   H_dmf [LENNARD_JONES] p_0/k_B:   7.82250 [K], p_1: 2.52321 [A], shift/k_B:  -0.00270396 [K], tailcorrection: no
     Hw -      Cl [LENNARD_JONES] p_0/k_B:  33.02191 [K], p_1: 3.18287 [A], shift/k_B:  -0.04597661 [K], tailcorrection: no
     Hw -      Kr [LENNARD_JONES] p_0/k_B:  35.67607 [K], p_1: 3.24121 [A], shift/k_B:  -0.05538904 [K], tailcorrection: no
     Hw -      Xe [LENNARD_JONES] p_0/k_B:  41.11464 [K], p_1: 3.47321 [A], shift/k_B:  -0.09662730 [K], tailcorrection: no
     Hw -     Cu1 [LENNARD_JONES] p_0/k_B:   4.38697 [K], p_1: 2.98006 [A], shift/k_B:  -0.00411510 [K], tailcorrection: no
     Hw -      O1 [LENNARD_JONES] p_0/k_B:  19.19265 [K], p_1: 2.93979 [A], shift/k_B:  -0.01659232 [K], tailcorrection: no
     Hw -      C1 [LENNARD_JONES] p_0/k_B:  19.13240 [K], p_1: 3.15970 [A], shift/k_B:  -0.02549626 [K], tailcorrection: no
     Hw -      C2 [LENNARD_JONES] p_0/k_B:  19.13240 [K], p_1: 3.15970 [A], shift/k_B:  -0.02549626 [K], tailcorrection: no
     Hw -      C3 [LENNARD_JONES] p_0/k_B:  19.13240 [K], p_1: 3.15970 [A], shift/k_B:  -0.02549626 [K], tailcorrection: no
     Hw -      H1 [LENNARD_JONES] p_0/k_B:   7.64893 [K], p_1: 2.84642 [A], shift/k_B:  -0.00544866 [K], tailcorrection: no
     Lw -      Lw [LENNARD_JONES] p_0/k_B:   7.64893 [K], p_1: 2.84642 [A], shift/k_B:  -0.00544866 [K], tailcorrection: no
     Lw -      Lw [LENNARD_JONES] p_0/k_B:   7.64893 [K], p_1: 2.84642 [A], shift/k_B:  -0.00544866 [K], tailcorrection: no
     Lw -  C_benz [LENNARD_JONES] p_0/k_B:  15.32391 [K], p_1: 3.22321 [A], shift/k_B:  -0.02300968 [K], tailcorrection: no
     Lw -  H_benz [LENNARD_JONES] p_0/k_B:  13.95225 [K], p_1: 2.60321 [A], shift/k_B:  -0.00581603 [K], tailcorrection: no
     Lw -   N_dmf [LENNARD_JONES] p_0/k_B:  24.73690 [K], p_1: 3.02321 [A], shift/k_B:  -0.02529395 [K], tailcorrection: no
     Lw -  Co_dmf [LENNARD_JONES] p_0/k_B:  19.55624 [K], p_1: 3.27321 [A], shift/k_B:  -0.03220492 [K], tailcorrection: no
     Lw -  Cm_dmf [LENNARD_JONES] p_0/k_B:  24.73690 [K], p_1: 3.32321 [A], shift/k_B:  -0.04461374 [K], tailcorrection: no
     Lw -   O_dmf [LENNARD_JONES] p_0/k_B:  27.65670 [K], p_1: 2.90321 [A], shift/k_B:  -0.02217974 [K], tailcorrection: no
     Lw -   H_dmf [LENNARD_JONES] p_0/k_B:   7.82250 [K], p_1: 2.52321 [A], shift/k_B:  -0.00270396 [K], tailcorrection: no
[...]
	Block[ 4]            0.00000 [K]
	------------------------------------------------------------------------------
	Average              0.00000 [K] +/-            0.00000 [K]

Average Adsorbate Intra charge-charge Coulomb energy:
=======================================
	Block[ 0]            0.00000 [K]
	Block[ 1]            0.00000 [K]
	Block[ 2]            0.00000 [K]
	Block[ 3]            0.00000 [K]
	Block[ 4]            0.00000 [K]
	------------------------------------------------------------------------------
	Average              0.00000 [K] +/-            0.00000 [K]

Average Adsorbate Intra charge-bonddipole Coulomb energy:
=======================================
	Block[ 0]            0.00000 [K]
	Block[ 1]            0.00000 [K]
	Block[ 2]            0.00000 [K]
	Block[ 3]            0.00000 [K]
	Block[ 4]            0.00000 [K]
	------------------------------------------------------------------------------
	Average              0.00000 [K] +/-            0.00000 [K]

Average Adsorbate Intra bonddipole-bonddipole Coulomb energy:
=======================================
	Block[ 0]            0.00000 [K]
	Block[ 1]            0.00000 [K]
	Block[ 2]            0.00000 [K]
	Block[ 3]            0.00000 [K]
	Block[ 4]            0.00000 [K]
	------------------------------------------------------------------------------
	Average              0.00000 [K] +/-            0.00000 [K]

Average Cation Bond stretch energy:
=================================
	Block[ 0]            0.00000 [K]
	Block[ 1]            0.00000 [K]
	Block[ 2]            0.00000 [K]
	Block[ 3]            0.00000 [K]
	Block[ 4]            0.00000 [K]
	------------------------------------------------------------------------------
	Average              0.00000 [K] +/-            0.00000 [K]

Average Cation UreyBradley stretch energy:
==========================================
	Block[ 0]            0.00000 [K]
	Block[ 1]            0.00000 [K]
	Block[ 2]            0.00000 [K]
	Block[ 3]            0.00000 [K]
	Block[ 4]            0.00000 [K]
	------------------------------------------------------------------------------
	Average              0.00000 [K] +/-            0.00000 [K]

Average Cation Bend angle energy:
=================================
	Block[ 0]            0.00000 [K]
	Block[ 1]            0.00000 [K]
	Block[ 2]            0.00000 [K]
	Block[ 3]            0.00000 [K]
	Block[ 4]            0.00000 [K]
	------------------------------------------------------------------------------
	Average              0.00000 [K] +/-            0.00000 [K]

Average Cation Bend angle inversion energy:
===========================================
	Block[ 0]            0.00000 [K]
	Block[ 1]            0.00000 [K]
	Block[ 2]            0.00000 [K]
	Block[ 3]            0.00000 [K]
	Block[ 4]            0.00000 [K]
	------------------------------------------------------------------------------
	Average              0.00000 [K] +/-            0.00000 [K]

Average Cation Torsion energy:
==============================
	Block[ 0]            0.00000 [K]
	Block[ 1]            0.00000 [K]
	Block[ 2]            0.00000 [K]
	Block[ 3]            0.00000 [K]
	Block[ 4]            0.00000 [K]
	------------------------------------------------------------------------------
	Average              0.00000 [K] +/-            0.00000 [K]

Average Cation Improper Torsion energy:
=======================================
	Block[ 0]            0.00000 [K]
	Block[ 1]            0.00000 [K]
	Block[ 2]            0.00000 [K]
	Block[ 3]            0.00000 [K]
	Block[ 4]            0.00000 [K]
	------------------------------------------------------------------------------
	Average              0.00000 [K] +/-            0.00000 [K]

Average Cation Bond-Bond cross term energy:
=================================================
	Block[ 0]            0.00000 [K]
	Block[ 1]            0.00000 [K]
	Block[ 2]            0.00000 [K]
	Block[ 3]            0.00000 [K]
	Block[ 4]            0.00000 [K]
	------------------------------------------------------------------------------
	Average              0.00000 [K] +/-            0.00000 [K]

Average Cation Bend-Bend cross term energy:
===========================================
	Block[ 0]            0.00000 [K]
	Block[ 1]            0.00000 [K]
	Block[ 2]            0.00000 [K]
	Block[ 3]            0.00000 [K]
	Block[ 4]            0.00000 [K]
	------------------------------------------------------------------------------
	Average              0.00000 [K] +/-            0.00000 [K]

Average Cation Bond-Bend cross term energy:
==============================================
	Block[ 0]            0.00000 [K]
	Block[ 1]            0.00000 [K]
	Block[ 2]            0.00000 [K]
	Block[ 3]            0.00000 [K]
	Block[ 4]            0.00000 [K]
	------------------------------------------------------------------------------
	Average              0.00000 [K] +/-            0.00000 [K]

Average Cation Bond-Torsion cross term energy:
==============================================
	Block[ 0]            0.00000 [K]
	Block[ 1]            0.00000 [K]
	Block[ 2]            0.00000 [K]
	Block[ 3]            0.00000 [K]
	Block[ 4]            0.00000 [K]
	------------------------------------------------------------------------------
	Average              0.00000 [K] +/-            0.00000 [K]

Average Cation Bend-Torsion cross term energy:
==============================================
	Block[ 0]            0.00000 [K]
	Block[ 1]            0.00000 [K]
	Block[ 2]            0.00000 [K]
	Block[ 3]            0.00000 [K]
	Block[ 4]            0.00000 [K]
	------------------------------------------------------------------------------
	Average              0.00000 [K] +/-            0.00000 [K]

Average Cation Intra Van der Waals energy:
==========================================
	Block[ 0]            0.00000 [K]
	Block[ 1]            0.00000 [K]
	Block[ 2]            0.00000 [K]
	Block[ 3]            0.00000 [K]
	Block[ 4]            0.00000 [K]
	------------------------------------------------------------------------------
	Average              0.00000 [K] +/-            0.00000 [K]

Average Cation Intra charge-charge Coulomb energy:
====================================
	Block[ 0]            0.00000 [K]
	Block[ 1]            0.00000 [K]
	Block[ 2]            0.00000 [K]
	Block[ 3]            0.00000 [K]
	Block[ 4]            0.00000 [K]
	------------------------------------------------------------------------------
	Average              0.00000 [K] +/-            0.00000 [K]

Average Cation Intra charge-bonddipole Coulomb energy:
====================================
	Block[ 0]            0.00000 [K]
	Block[ 1]            0.00000 [K]
	Block[ 2]            0.00000 [K]
	Block[ 3]            0.00000 [K]
	Block[ 4]            0.00000 [K]
	------------------------------------------------------------------------------
	Average              0.00000 [K] +/-            0.00000 [K]

Average Cation Intra bonddipole-bonddipole Coulomb energy:
====================================
	Block[ 0]            0.00000 [K]
	Block[ 1]            0.00000 [K]
	Block[ 2]            0.00000 [K]
	Block[ 3]            0.00000 [K]
	Block[ 4]            0.00000 [K]
	------------------------------------------------------------------------------
	Average              0.00000 [K] +/-            0.00000 [K]

Average Host-Host energy:
=========================
	Block[ 0] 0.00000            Van der Waals: 0.00000            Coulomb: 0.00000            [K]
	Block[ 1] 0.00000            Van der Waals: 0.00000            Coulomb: 0.00000            [K]
	Block[ 2] 0.00000            Van der Waals: 0.00000            Coulomb: 0.00000            [K]
	Block[ 3] 0.00000            Van der Waals: 0.00000            Coulomb: 0.00000            [K]
	Block[ 4] 0.00000            Van der Waals: 0.00000            Coulomb: 0.00000            [K]
	------------------------------------------------------------------------------
	Average   0.00000            Van der Waals: 0.000000           Coulomb: 0.00000            [K]
	      +/- 0.00000                       +/- 0.000000                +/- 0.00000            [K]

Average Adsorbate-Adsorbate energy:
===================================
	Block[ 0] -1641.24055        Van der Waals: -1177.40405        Coulomb: -463.83650         [K]
	Block[ 1] -1713.50979        Van der Waals: -1184.58844        Coulomb: -528.92136         [K]
	Block[ 2] -1537.11352        Van der Waals: -1078.01240        Coulomb: -459.10112         [K]
	Block[ 3] -1348.92199        Van der Waals: -958.96914         Coulomb: -389.95285         [K]
	Block[ 4] -1575.77306        Van der Waals: -1145.04888        Coulomb: -430.72418         [K]
	------------------------------------------------------------------------------
	Average   -1563.31178        Van der Waals: -1108.804581       Coulomb: -454.50720         [K]
	      +/- 245.66147                     +/- 167.717734              +/- 91.11971           [K]

Average Cation-Cation energy:
=============================
	Block[ 0] 0.00000            Van der Waals: 0.00000            Coulomb: 0.00000            [K]
	Block[ 1] 0.00000            Van der Waals: 0.00000            Coulomb: 0.00000            [K]
	Block[ 2] 0.00000            Van der Waals: 0.00000            Coulomb: 0.00000            [K]
	Block[ 3] 0.00000            Van der Waals: 0.00000            Coulomb: 0.00000            [K]
	Block[ 4] 0.00000            Van der Waals: 0.00000            Coulomb: 0.00000            [K]
	------------------------------------------------------------------------------
	Average   0.00000            Van der Waals: 0.000000           Coulomb: 0.00000            [K]
	      +/- 0.00000                       +/- 0.000000                +/- 0.00000            [K]

Average Host-Adsorbate energy:
==============================
	Block[ 0] -45056.33107       Van der Waals: -36175.42692       Coulomb: -8880.90414        [K]
	Block[ 1] -45455.90736       Van der Waals: -36677.37062       Coulomb: -8778.53674        [K]
	Block[ 2] -43109.22000       Van der Waals: -35010.01246       Coulomb: -8099.20754        [K]
	Block[ 3] -41980.27047       Van der Waals: -34235.28493       Coulomb: -7744.98554        [K]
	Block[ 4] -43774.58198       Van der Waals: -35264.55198       Coulomb: -8510.02999        [K]
	------------------------------------------------------------------------------
	Average   -43875.26218       Van der Waals: -35472.529385      Coulomb: -8402.73279        [K]
	      +/- 2542.64643                    +/- 1728.272591             +/- 851.42148          [K]

Average Host-Cation energy:
===========================
	Block[ 0] 0.00000            Van der Waals: 0.00000            Coulomb: 0.00000            [K]
	Block[ 1] 0.00000            Van der Waals: 0.00000            Coulomb: 0.00000            [K]
	Block[ 2] 0.00000            Van der Waals: 0.00000            Coulomb: 0.00000            [K]
	Block[ 3] 0.00000            Van der Waals: 0.00000            Coulomb: 0.00000            [K]
	Block[ 4] 0.00000            Van der Waals: 0.00000            Coulomb: 0.00000            [K]
	------------------------------------------------------------------------------
	Average   0.00000            Van der Waals: 0.000000           Coulomb: 0.00000            [K]
	      +/- 0.00000                       +/- 0.000000                +/- 0.00000            [K]

Average Adsorbate-Cation energy:
================================
	Block[ 0] 0.00000            Van der Waals: 0.00000            Coulomb: 0.00000            [K]
	Block[ 1] 0.00000            Van der Waals: 0.00000            Coulomb: 0.00000            [K]
	Block[ 2] 0.00000            Van der Waals: 0.00000            Coulomb: 0.00000            [K]
	Block[ 3] 0.00000            Van der Waals: 0.00000            Coulomb: 0.00000            [K]
	Block[ 4] 0.00000            Van der Waals: 0.00000            Coulomb: 0.00000            [K]
	------------------------------------------------------------------------------
	Average   0.00000            Van der Waals: 0.000000           Coulomb: 0.00000            [K]
	      +/- 0.00000                       +/- 0.000000                +/- 0.00000            [K]

Host polarization energy:
=======================
	Block[ 0]            0.00000 [K]
	Block[ 1]            0.00000 [K]
	Block[ 2]            0.00000 [K]
	Block[ 3]            0.00000 [K]
	Block[ 4]            0.00000 [K]
	------------------------------------------------------------------------------
	Average              0.00000 [K] +/-            0.00000 [K]

Adsorbate polarization energy:
=======================
	Block[ 0]            0.00000 [K]
	Block[ 1]            0.00000 [K]
	Block[ 2]            0.00000 [K]
	Block[ 3]            0.00000 [K]
	Block[ 4]            0.00000 [K]
	------------------------------------------------------------------------------
	Average              0.00000 [K] +/-            0.00000 [K]

Cation polarization energy:
=======================
	Block[ 0]            0.00000 [K]
	Block[ 1]            0.00000 [K]
	Block[ 2]            0.00000 [K]
	Block[ 3]            0.00000 [K]
	Block[ 4]            0.00000 [K]
	------------------------------------------------------------------------------
	Average              0.00000 [K] +/-            0.00000 [K]

Host back-polarization energy:
=======================
	Block[ 0]            0.00000 [K]
	Block[ 1]            0.00000 [K]
	Block[ 2]            0.00000 [K]
	Block[ 3]            0.00000 [K]
	Block[ 4]            0.00000 [K]
	------------------------------------------------------------------------------
	Average              0.00000 [K] +/-            0.00000 [K]

Adsorbate back-polarization energy:
=======================
	Block[ 0]            0.00000 [K]
	Block[ 1]            0.00000 [K]
	Block[ 2]            0.00000 [K]
	Block[ 3]            0.00000 [K]
	Block[ 4]            0.00000 [K]
	------------------------------------------------------------------------------
	Average              0.00000 [K] +/-            0.00000 [K]

Cation back-polarization energy:
=======================
	Block[ 0]            0.00000 [K]
	Block[ 1]            0.00000 [K]
	Block[ 2]            0.00000 [K]
	Block[ 3]            0.00000 [K]
	Block[ 4]            0.00000 [K]
	------------------------------------------------------------------------------
	Average              0.00000 [K] +/-            0.00000 [K]

Tail-correction energy:
=======================
	Block[ 0]            0.00000 [K]
	Block[ 1]            0.00000 [K]
	Block[ 2]            0.00000 [K]
	Block[ 3]            0.00000 [K]
	Block[ 4]            0.00000 [K]
	------------------------------------------------------------------------------
	Average              0.00000 [K] +/-            0.00000 [K]

Distance-constraints energy:
=======================
	Block[ 0]            0.00000 [K]
	Block[ 1]            0.00000 [K]
	Block[ 2]            0.00000 [K]
	Block[ 3]            0.00000 [K]
	Block[ 4]            0.00000 [K]
	------------------------------------------------------------------------------
	Average              0.00000 [K] +/-            0.00000 [K]

Angle-constraints energy:
=======================
	Block[ 0]            0.00000 [K]
	Block[ 1]            0.00000 [K]
	Block[ 2]            0.00000 [K]
	Block[ 3]            0.00000 [K]
	Block[ 4]            0.00000 [K]
	------------------------------------------------------------------------------
	Average              0.00000 [K] +/-            0.00000 [K]

Dihedral-constraints energy:
=======================
	Block[ 0]            0.00000 [K]
	Block[ 1]            0.00000 [K]
	Block[ 2]            0.00000 [K]
	Block[ 3]            0.00000 [K]
	Block[ 4]            0.00000 [K]
	------------------------------------------------------------------------------
	Average              0.00000 [K] +/-            0.00000 [K]

Inversion-bend constraints energy:
=======================
	Block[ 0]            0.00000 [K]
	Block[ 1]            0.00000 [K]
	Block[ 2]            0.00000 [K]
	Block[ 3]            0.00000 [K]
	Block[ 4]            0.00000 [K]
	------------------------------------------------------------------------------
	Average              0.00000 [K] +/-            0.00000 [K]

Out-of-plane-distance constraints energy:
=======================
	Block[ 0]            0.00000 [K]
	Block[ 1]            0.00000 [K]
	Block[ 2]            0.00000 [K]
	Block[ 3]            0.00000 [K]
	Block[ 4]            0.00000 [K]
	------------------------------------------------------------------------------
	Average              0.00000 [K] +/-            0.00000 [K]

Exclusion-constraints energy:
=======================
	Block[ 0]            0.00000 [K]
	Block[ 1]            0.00000 [K]
	Block[ 2]            0.00000 [K]
	Block[ 3]            0.00000 [K]
	Block[ 4]            0.00000 [K]
	------------------------------------------------------------------------------
	Average              0.00000 [K] +/-            0.00000 [K]

Total energy:
=============
	Block[ 0]       -46697.57161 [K]
	Block[ 1]       -47169.41716 [K]
	Block[ 2]       -44646.33353 [K]
	Block[ 3]       -43329.19246 [K]
	Block[ 4]       -45350.35504 [K]
	------------------------------------------------------------------------------
	Average         -45438.57396 [K] +/-         2780.76408 [K]

Number of molecules:
====================

Component 0 [CO2]
-------------------------------------------------------------
	Block[ 0] 18.70700           [-]
	Block[ 1] 18.45650           [-]
	Block[ 2] 17.72700           [-]
	Block[ 3] 17.32450           [-]
	Block[ 4] 18.10500           [-]
	------------------------------------------------------------------------------
	Average                                     18.0640000000 +/-       0.9918126839 [-]
	Average loading absolute [molecules/unit cell]       18.0640000000 +/-       0.9918126839 [-]
	Average loading absolute [mol/kg framework]          1.8665110049 +/-       0.1024816923 [-]
	Average loading absolute [milligram/gram framework]         82.1242444011 +/-       4.5090714822 [-]
	Average loading absolute [cm^3 (STP)/gr framework]         41.8359323958 +/-       2.2970221653 [-]
	Average loading absolute [cm^3 (STP)/cm^3 framework]         36.7778328969 +/-       2.0193047583 [-]

	Block[ 0] 18.70700           [-]
	Block[ 1] 18.45650           [-]
	Block[ 2] 17.72700           [-]
	Block[ 3] 17.32450           [-]
	Block[ 4] 18.10500           [-]
	------------------------------------------------------------------------------
	Average                                     17.9446099863 +/-       0.9918126839 [-]
	Average loading excess [molecules/unit cell]       17.9446099863 +/-       0.9918126839 [-]
	Average loading excess [mol/kg framework]          1.8541747131 +/-       0.1024816923 [-]
	Average loading excess [milligram/gram framework]         81.5814623668 +/-       4.5090714822 [-]
	Average loading excess [cm^3 (STP)/gr framework]         41.5594270512 +/-       2.2970221653 [-]
	Average loading excess [cm^3 (STP)/cm^3 framework]         36.5347579426 +/-       2.0193047583 [-]


Average Widom Rosenbluth factor:
================================
	Block[ 0] 0 [-]
	Block[ 1] 0 [-]
	Block[ 2] 0 [-]
	Block[ 3] 0 [-]
	Block[ 4] 0 [-]
	------------------------------------------------------------------------------
	[CO2] Average Widom:   0 +/- 0.000000 [-]

Average Henry coefficient:
==========================
	Block[ 0] 0 [mol/kg/Pa]
	Block[ 1] 0 [mol/kg/Pa]
	Block[ 2] 0 [mol/kg/Pa]
	Block[ 3] 0 [mol/kg/Pa]
	Block[ 4] 0 [mol/kg/Pa]
	------------------------------------------------------------------------------
	[CO2] Average Henry coefficient:  0 +/- 0 [mol/kg/Pa]

Average adsorption energy <U_gh>_1-<U_h>_0 obtained from Widom-insertion:
(Note: the total heat of adsorption is dH=<U_gh>_1-<U_h>_0 - <U_g> - RT)
=========================================================================

Simulation finished,  0 warnings
