Compiler and run-time data
===========================================================================
RASPA 1.6-2
Compiled as a 64-bits application
Compiler: gcc 4.2.1 (Based on Apple Inc. build 5658) (LLVM build 2336.1.00)
Compile Date = Jun  8 2012, Compile Time = 20:35:11

Fri Jun  8 20:58:16 2012
Simulation started on Friday, June 08.
The start time was 08:58 PM.

Cpu data:    x86_64
Cpu Model:   MacBookPro6,2
Host name:   Davids-MacBook-Pro.local
OS release:  11.4.0
OS type:     Darwin
OS version:  11E53


Simulation
===========================================================================
Dimensions: 3
Random number seed: 1339181896
RASPA directory set to: /Users/dubbelda/RASPA/simulations/
String appended to output-files: 
Number of cycles: 0
Number of initializing cycles: 0
Number of equilibration cycles: 0
Print every: 100
Triclinic boundary condition applied
Timestep: 0.000500
Initialization Ensemble: NVE (constant number of particles N, constant volume V, constant energy E)
Production run ensemble: NVE (constant number of particles N, constant volume V, constant energy E)
	Degrees of freedom:                        12
	Translational Degrees of freedom:          12
	Rotational Degrees of freedom:             0
	Degrees of freedom Framework:              0


Mutual consistent basic set of units:
======================================
Unit of temperature: Kelvin
Unit of length:      1e-10 [m]
Unit of time:        1e-12 [s]
Unit of mass:        1.66054e-27 [kg]
Unit of charge:      1.60218e-19 [C/particle]

Derived units and their conversion factors:
===========================================
Unit of energy:              1.66054e-23 [J]
Unit of force:               1.66054e-13 [N]
Unit of pressure:            1.66054e+07 [Pa]
Unit of velocity:            100 [m/s]
Unit of acceleration:        1e-08 [m^2/s]
Unit of diffusion:           1e-08 [m^2/s]
Unit of dipole moment:       1.60218e-29 [C.m]
Unit of electric potential:  0.000103643 [V]
Unit of electric field:      1.03643e+06 [V]
Unit of polarizability:      1.54587e-35 [-]
Unit of Coulomb potential:   167101.0800066561  [K]
Unit of dielectric constant: 0.0000154587       [s^2 C^2/(kg m^3)]
Unit of wave vectors:        5.3088374589       [cm^1]
Boltzmann constant:          0.8314464919       [-]

Internal conversion factors:
===========================================
Energy to Kelvin:                                    1.2027242847
FH correction factor                                 2.0211930949
Heat capacity conversion factor:                    10.0000088723
From Debye to internal units:                        4.8032067991
Isothermal compressibility conversion factor:        0.0000000602

Energy conversion factors:
===========================================
From mdyne/A to kcal/mol/A^2:           143.933
From mdyne/A to kj/mol/A^2:             602.214
From mdyne/A to K/A^2:                  72429.7
From mdyne A/rad^2 to kcal/mol/deg^2:   0.0438444


Properties computed
===========================================================================
Movies: no
Radial Distribution Function: no
Number of molecules GCMC histogram: no
Histogram of the molecule positions: no
Free energy profiles: no
Pore Size Distribution Function: no
End-to-end distance: no
Histogram of the energy of the system: no
Compute thermodynamic factors: no
Framework spacing histograms: no
Residence times histograms: no
Distance histograms: no
Bend Angle histograms: no
Dihedral angle histograms: no
Angle between planes histograms: no
Molecule properties: no
Infra-red spectra: no
Mean-squared displacement using modified order-N algorithm: no
Velocity-autocorrelation function modified order-N algorithm: no
Rotational velocity-autocorrelation function modified order-N algorithm: no
Molecular orientation-autocorrelation function modified order-N algorithm: no
Mean-squared displacement (conventional algorithm): no
Velocity-autocorrelation function (conventional algorithm): no
3D density grid for adsorbates: no
Compute cation an/or adsorption sites: no
dcTST snapshots: no
Compute pressure and stress: no


VTK
===========================================================================
VTK fractional-range position framework atoms: [-0.001000,1.001000] [-0.001000,1.001000] [-0.001000,1.001000]
VTK fractional-range position framework bonds: [-0.151000,1.151000] [-0.151000,1.151000] [-0.151000,1.151000]
VTK fractional-range com-position adsorbate molecules: [-0.101000,1.101000] [-0.101000,1.101000] [-0.101000,1.101000]
VTK fractional-range com-position cation molecules: [-0.101000,1.101000] [-0.101000,1.101000] [-0.101000,1.101000]
	3D free energy grid made for the full simulation-cell


Thermo/Baro-stat NHC parameters
===========================================================================
External temperature: 300.000000 [K]
Beta: 0.004009 [energy unit]
External Pressure: 0.000000 [Pa]


Thermostat chain-length: 3
Timescale parameter for thermostat: 0.150000 [ps]
Barostat chain-length:   3
Timescale parameter for barostat:   0.150000 [ps]

Number of Yoshida-Suzuki decomposition steps: 5
Number of respa steps: 5


Method and settings for electrostatics
===============================================================================
Dielectric constant of the medium : 1.000000
Charge from charge-equilibration: no
Ewald summation is used (exact solution of a periodic system)
Alpha convergence parameter       : 0.800000
kvec (x,y,z)                      : 8 8 8


Rattle parameters
===========================================================================
Distance constraint type: r^2-r^2_0
Bend angle constraint type: theta-theta_0
Dihedral angle constraint type: phi-phi_0
Inversion-bend angle constraint type: chi-chi_0
Out-of-plane distance constraint type: r-r_0


Spectra parameters
===========================================================================
Compute normal modes: no


Minimization parameters
===========================================================================
Generalized coordinates are: Cartesian center-of-mass, elements of the orientational matrix p1,p2,p3 and strain
Potential derivatives are evaluated: analytically
Translation of the system is removed from the generalized Hessian: no
Rotation of the system is removed from the generalized Hessian: no
Maximum step-length: 0.3
Convergence factor: 1
Maximum number of minimization steps: 10000
Use gradients in the line-minimizations: yes
RMS gradient tolerance: 1e-06
Maximum gradient tolerance: 1e-06

Distance constraints: 0
Angle constraints: 0
Dihedral constraints: 0

Improper dihedral constraints: 0

Inversion-bend constraints: 0

Out-of-plane constraints: 0

Harmonic distance constraints: 0
Harmonic angle constraints: 0
Harmonic dihedral constraints: 0

Dihedral mid-point measurements: 0

All framework atoms are fixed

Fixed adsorbate atoms:  
Fixed adsorbate groups (center-of-mass):  
Fixed adsorbate groups (orientation):  

Fixed cation atoms:  
Fixed cation groups (center-of-mass):  
Fixed cation groups (orientation):  


dcTST parameters
===========================================================================
Free energy profiles computed: no
Free energy profiles written every 5000 cycles
Free energy mapping: mapped to a,b,c-coordinates
BarrierPosition:       0.0000000000       0.0000000000       0.0000000000
BarrierNormal:         0.0000000000       0.0000000000       0.0000000000
Start with a molecule on top of the barrier: no
Maximum distance to barrier (e.g. distance to minumum free energy):       0.0000000000 [A]
Maximum trajectory time:      10.0000000000 [ps]
Each configuration is used with 5 different initial velocities


Cbmc parameters
===========================================================================
Biasing method: using only the VDW part
Number of trial positions:                             10
Number of trial positions coupled Torsion-selection:   100
Number of trial position for the first bead:           10
Number of trial moves per open bead:                   150
Target acceptance ratio small-mc scheme:               0.400000
Energy overlap criteria:                               100000
Minimal Rosenbluth factor:                             1e-150


Pseudo atoms: 4
===========================================================================
Pseudo Atom[   0] Name plus     Oxidation: -        Element: He   pdb-name: He   Scat. Types:   3   2 Mass=4.002602000  B-factor:1.000   
                 Charge=1.000000000   Polarization=0.000000000 ,0.000000000 ,0.000000000  [A^3] (considered a charged atom and no polarization)  Interactions:  no
                 Anisotropic factor:    0.000 [-] (Absolute), Radius:    1.000 [A]
Pseudo Atom[   1] Name min      Oxidation: -        Element: Ar   pdb-name: Ar   Scat. Types:  19  18 Mass=39.948000000 B-factor:1.000   
                 Charge=-1.000000000  Polarization=0.000000000 ,0.000000000 ,0.000000000  [A^3] (considered a charged atom and no polarization)  Interactions:  no
                 Anisotropic factor:    0.000 [-] (Absolute), Radius:    1.000 [A]
Pseudo Atom[   2] Name neut1    Oxidation: -        Element: Ar   pdb-name: Ar   Scat. Types:  19  18 Mass=39.948000000 B-factor:1.000   
                 Charge=0.000000000   Polarization=0.100000000 ,0.000000000 ,0.000000000  [A^3] (considered a charged atom and polarizable)  Interactions:  no
                 Anisotropic factor:    0.000 [-] (Absolute), Radius:    1.000 [A]
Pseudo Atom[   3] Name neut2    Oxidation: -        Element: Ar   pdb-name: Ar   Scat. Types:  19  18 Mass=39.948000000 B-factor:1.000   
                 Charge=0.000000000   Polarization=0.100000000 ,0.100000000 ,0.100000000  [A^3] (considered a charged atom and polarizable)  Interactions:  no
                 Anisotropic factor:    0.000 [-] (Absolute), Radius:    1.000 [A]


Forcefield: local
===========================================================================
CutOff VDW : 12.000000 (144.000000)
CutOff VDW switching on: 10.800000 (116.640000)
CutOff charge-charge : 5.000000 (25.000000)
CutOff charge-charge switching on: 3.250000 (10.562500)
CutOff charge-bonddipole : 12.000000 (144.000000)
CutOff charge-bondipole switching on: 8.400000 (70.560000)
CutOff bonddipole-bonddipole : 12.000000 (144.000000)
CutOff bonddipole-bondipole switching on: 9.000000 (81.000000)
Polarization is computed
Framework-Framework polarization is ommited
Adsorbate-Adsorbate polarization is included
Cation-Cation polarization is ommited
Adsorbate-Cation polarization is included
Back polarization is computed by self-consistent iteration
3 steps are used to iterate to convergence
All potentials are shifted to zero at the Cutoff

No general mixing rule: all cross term specified individualy
0 cross terms are overwritten using the individual mixing rules from the file 'force_field_mixing_rules.def'
and then 0 terms are overwritten using the specific interactions from the file 'force_field.def'

The force field and all the interactions:


MoleculeDefinitions:
===========================================================================
Component 0 [atom1] (Adsorbate molecule)

	MoleculeDefinitions: TraPPE
	Component contains (at least some) atoms which are charged
	Component contains no atoms with point dipoles (polarization)
	Component has a net charge of 1.000000

	Ideal chain Rosenbluth weight: 1.000000
	Ideal chain total energy: 0.000000

	Critical temparure [K]: 0.000000
	Critical pressure [Pa]: 0.000000
	Acentric factor [-]: 0.000000

	Vapour=stable, Liquid=metastable

	MolFraction:           1.0000000000 [-]
	Compressibility:       0.0000000000 [-]

	Density of the bulk fluid phase:       0.0000000000 [kg/m^3]

	Amount of excess molecules:       0.0000000000 [-]

	Conversion factor molecules/unit cell -> mol/kg:                inf [-]
	Conversion factor molecules/unit cell -> gr/gr:                inf [-]
	Conversion factor molecules/unit cell -> cm^3 STP/gr:                inf [-]
	Conversion factor molecules/unit cell -> cm^3 STP/cm^3:      37.2192747486 [-]
	Conversion factor mol/kg -> cm^3 STP/gr:      22.4139757476 [-]
	Conversion factor mol/kg -> cm^3 STP/cm^3:       0.0000000000 [-]

	Partial pressure: -16605402.00000000000000 [Pa]
	                    -124540.51499999999942 [Torr]
	                       -166.05402000000001 [bar]
	                       -163.88257586972614 [atm]

	Fugacity coefficient:      -1.0000000000 [-]

	Partial fugacity:  16605402.00000000000000 [Pa]
	                     124540.51499999999942 [Torr]
	                        166.05402000000001 [bar]
	                        163.88257586972614 [atm]

	Molecule contains 1 number of atoms
		atom:    0  is of type:    0 [      plus] (group: 0)

	Molecule contains 0 chirality centers

	Molecule contains 1 number of groups

		group: 0 containing: 1 elements
		-------------------------------------------------
		the group is modelled as flexible, i.e. no constraints
		Mass: 4.002602 [a.u.]
		Mass: 6.646478 [kg/m^3]

		Rotational Degrees of freedom: 0
		Diagonalized inertia vector:       0.0000000000
		                                   0.0000000000
		                                   0.0000000000
		element: 0 atom: 0 [      plus] Charge:  1.000000 Anisotropy: 0.000000 Connectivity: 0 ()

		Dipole:           0.0000000000 [D]
		Quadrupole:       0.0000000000       0.0000000000       0.0000000000 [D Angstrom]
		Quadrupole tensor [D Angstrom]
				       0.0000000000       0.0000000000       0.0000000000
				       0.0000000000       0.0000000000       0.0000000000
				       0.0000000000       0.0000000000       0.0000000000

	Starting bead for growth               : 0

	Number of atoms                        : 1

	Number of constraint bonds             : 0
	Number of constraint bends             : 0
	Number of constraint inversion bends   : 0
	Number of constraint torsions          : 0
	Number of constraint improper torsions : 0
	Number of constraint improper torsions : 0

	Number of bonds                        : 0
	Number of Urey-Bradleys                : 0
	Number of bends                        : 0
	Number of inversion bends              : 0
	Number of torsions                     : 0
	Number of improper torsions            : 0
	Number of improper torsions            : 0

	Number of bond/bond cross terms        : 0
	Number of bond/bend cross terms        : 0
	Number of bend/bend cross terms        : 0
	Number of stretch/torsion cross terms  : 0
	Number of bend/torsion cross terms     : 0

	Number of charges                      : 1
	Number of bond-dipoles                 : 0

	Number of intra Van der Waals                             : 0
	Number of intra charge-charge Coulomb                     : 0
	Number of intra charge-bonddipole Coulomb                 : 0
	Number of intra bonddipole-bonddipole Coulomb             : 0

	Number of excluded intra charge-charge Coulomb                     : 0
	Number of excluded intra charge-bonddipole Coulomb                 : 0
	Number of excluded intra bonddipole-bonddipole Coulomb             : 0

	Number of cbmc-config moves                               : 0

	Particle Moves:             
		ProbabilityTranslationMove:                  100.000000
			TranslationDirection:      XYZ
		Percentage of random translation moves:       0.000000
		Percentage of rotation moves:                 0.000000
		Percentage of partial reinsertion moves:      0.000000
		Percentage of regrow moves:                   0.000000
		Percentage of regrow-in-place moves:          0.000000
		Percentage of regrow-in-plane moves:          0.000000
		Percentage of identity-change moves:          0.000000
		Percentage of swap (insert/delete) moves:     0.000000
		Percentage of Widom insertion moves:          0.000000
		Percentage of surface-area moves:             0.000000
		Percentage of Gibbs particle-transfer moves:  0.000000
		Percentage of Gibbs identity-change moves:    0.000000

	System Moves (percentage per cycle):
		Percentage of parallel-tempering moves:       0.000000
		Percentage of hyper-parallel-tempering moves: 0.000000
		Percentage of parallel-mol-fraction moves:    0.000000
			   Component A: 0 B: 1
		Percentage of chiral inversion moves:         0.000000
		Percentage of volume-change moves:            0.000000
		Percentage of box-shape-change moves:         0.000000
		Percentage of Gibbs volume-change moves:      0.000000
		Percentage of Hybrid-NVE moves:               0.000000
		Percentage of Hybrid-NPH moves:               0.000000
		Percentage of Hybrid-NPHPR moves:             0.000000
		Percentage of framework-change moves:         0.000000
		Percentage of framework-shift moves:          0.000000

	Moves are restricted: No
	No biased sampling used for this component


	number of identity-config changes: 1
	--------------------------------------------
	nr fixed 1: 0 

	Number of pockets blocked in a unitcell: 0
		Pockets are NOT blocked for this component

Component 1 [atom2] (Adsorbate molecule)

	MoleculeDefinitions: TraPPE
	Component contains (at least some) atoms which are charged
	Component contains no atoms with point dipoles (polarization)
	Component has a net charge of -1.000000

	Ideal chain Rosenbluth weight: 1.000000
	Ideal chain total energy: 0.000000

	Critical temparure [K]: 0.000000
	Critical pressure [Pa]: 0.000000
	Acentric factor [-]: 0.000000

	Vapour=stable, Liquid=metastable

	MolFraction:           1.0000000000 [-]
	Compressibility:       0.0000000000 [-]

	Density of the bulk fluid phase:       0.0000000000 [kg/m^3]

	Amount of excess molecules:       0.0000000000 [-]

	Conversion factor molecules/unit cell -> mol/kg:                inf [-]
	Conversion factor molecules/unit cell -> gr/gr:                inf [-]
	Conversion factor molecules/unit cell -> cm^3 STP/gr:                inf [-]
	Conversion factor molecules/unit cell -> cm^3 STP/cm^3:      37.2192747486 [-]
	Conversion factor mol/kg -> cm^3 STP/gr:      22.4139757476 [-]
	Conversion factor mol/kg -> cm^3 STP/cm^3:       0.0000000000 [-]

	Partial pressure: -16605402.00000000000000 [Pa]
	                    -124540.51499999999942 [Torr]
	                       -166.05402000000001 [bar]
	                       -163.88257586972614 [atm]

	Fugacity coefficient:      -1.0000000000 [-]

	Partial fugacity:  16605402.00000000000000 [Pa]
	                     124540.51499999999942 [Torr]
	                        166.05402000000001 [bar]
	                        163.88257586972614 [atm]

	Molecule contains 1 number of atoms
		atom:    0  is of type:    1 [       min] (group: 0)

	Molecule contains 0 chirality centers

	Molecule contains 1 number of groups

		group: 0 containing: 1 elements
		-------------------------------------------------
		the group is modelled as flexible, i.e. no constraints
		Mass: 39.948000 [a.u.]
		Mass: 66.335223 [kg/m^3]

		Rotational Degrees of freedom: 0
		Diagonalized inertia vector:       0.0000000000
		                                   0.0000000000
		                                   0.0000000000
		element: 0 atom: 0 [       min] Charge: -1.000000 Anisotropy: 0.000000 Connectivity: 0 ()

		Dipole:           0.0000000000 [D]
		Quadrupole:       0.0000000000       0.0000000000       0.0000000000 [D Angstrom]
		Quadrupole tensor [D Angstrom]
				       0.0000000000       0.0000000000       0.0000000000
				       0.0000000000       0.0000000000       0.0000000000
				       0.0000000000       0.0000000000       0.0000000000

	Starting bead for growth               : 0

	Number of atoms                        : 1

	Number of constraint bonds             : 0
	Number of constraint bends             : 0
	Number of constraint inversion bends   : 0
	Number of constraint torsions          : 0
	Number of constraint improper torsions : 0
	Number of constraint improper torsions : 0

	Number of bonds                        : 0
	Number of Urey-Bradleys                : 0
	Number of bends                        : 0
	Number of inversion bends              : 0
	Number of torsions                     : 0
	Number of improper torsions            : 0
	Number of improper torsions            : 0

	Number of bond/bond cross terms        : 0
	Number of bond/bend cross terms        : 0
	Number of bend/bend cross terms        : 0
	Number of stretch/torsion cross terms  : 0
	Number of bend/torsion cross terms     : 0

	Number of charges                      : 1
	Number of bond-dipoles                 : 0

	Number of intra Van der Waals                             : 0
	Number of intra charge-charge Coulomb                     : 0
	Number of intra charge-bonddipole Coulomb                 : 0
	Number of intra bonddipole-bonddipole Coulomb             : 0

	Number of excluded intra charge-charge Coulomb                     : 0
	Number of excluded intra charge-bonddipole Coulomb                 : 0
	Number of excluded intra bonddipole-bonddipole Coulomb             : 0

	Number of cbmc-config moves                               : 0

	Particle Moves:             
		ProbabilityTranslationMove:                  100.000000
			TranslationDirection:      XYZ
		Percentage of random translation moves:       0.000000
		Percentage of rotation moves:                 0.000000
		Percentage of partial reinsertion moves:      0.000000
		Percentage of regrow moves:                   0.000000
		Percentage of regrow-in-place moves:          0.000000
		Percentage of regrow-in-plane moves:          0.000000
		Percentage of identity-change moves:          0.000000
		Percentage of swap (insert/delete) moves:     0.000000
		Percentage of Widom insertion moves:          0.000000
		Percentage of surface-area moves:             0.000000
		Percentage of Gibbs particle-transfer moves:  0.000000
		Percentage of Gibbs identity-change moves:    0.000000

	System Moves (percentage per cycle):
		Percentage of parallel-tempering moves:       0.000000
		Percentage of hyper-parallel-tempering moves: 0.000000
		Percentage of parallel-mol-fraction moves:    0.000000
			   Component A: 0 B: 1
		Percentage of chiral inversion moves:         0.000000
		Percentage of volume-change moves:            0.000000
		Percentage of box-shape-change moves:         0.000000
		Percentage of Gibbs volume-change moves:      0.000000
		Percentage of Hybrid-NVE moves:               0.000000
		Percentage of Hybrid-NPH moves:               0.000000
		Percentage of Hybrid-NPHPR moves:             0.000000
		Percentage of framework-change moves:         0.000000
		Percentage of framework-shift moves:          0.000000

	Moves are restricted: No
	No biased sampling used for this component


	number of identity-config changes: 1
	--------------------------------------------
	nr fixed 1: 0 

	Number of pockets blocked in a unitcell: 0
		Pockets are NOT blocked for this component

Component 2 [atom3] (Adsorbate molecule)

	MoleculeDefinitions: TraPPE
	Component contains (at least some) atoms which are charged
	Component contains (at least some) atoms which are polarizable
	Component has a net charge of 0.000000

	Ideal chain Rosenbluth weight: 1.000000
	Ideal chain total energy: 0.000000

	Critical temparure [K]: 0.000000
	Critical pressure [Pa]: 0.000000
	Acentric factor [-]: 0.000000

	Vapour=stable, Liquid=metastable

	MolFraction:           1.0000000000 [-]
	Compressibility:       0.0000000000 [-]

	Density of the bulk fluid phase:       0.0000000000 [kg/m^3]

	Amount of excess molecules:       0.0000000000 [-]

	Conversion factor molecules/unit cell -> mol/kg:                inf [-]
	Conversion factor molecules/unit cell -> gr/gr:                inf [-]
	Conversion factor molecules/unit cell -> cm^3 STP/gr:                inf [-]
	Conversion factor molecules/unit cell -> cm^3 STP/cm^3:      37.2192747486 [-]
	Conversion factor mol/kg -> cm^3 STP/gr:      22.4139757476 [-]
	Conversion factor mol/kg -> cm^3 STP/cm^3:       0.0000000000 [-]

	Partial pressure: -16605402.00000000000000 [Pa]
	                    -124540.51499999999942 [Torr]
	                       -166.05402000000001 [bar]
	                       -163.88257586972614 [atm]

	Fugacity coefficient:      -1.0000000000 [-]

	Partial fugacity:  16605402.00000000000000 [Pa]
	                     124540.51499999999942 [Torr]
	                        166.05402000000001 [bar]
	                        163.88257586972614 [atm]

	Molecule contains 1 number of atoms
		atom:    0  is of type:    2 [     neut1] (group: 0)

	Molecule contains 0 chirality centers

	Molecule contains 1 number of groups

		group: 0 containing: 1 elements
		-------------------------------------------------
		the group is modelled as flexible, i.e. no constraints
		Mass: 39.948000 [a.u.]
		Mass: 66.335223 [kg/m^3]

		Rotational Degrees of freedom: 0
		Diagonalized inertia vector:       0.0000000000
		                                   0.0000000000
		                                   0.0000000000
		element: 0 atom: 0 [     neut1] Charge:  0.000000 Anisotropy: 0.000000 Connectivity: 0 ()

		Dipole:           0.0000000000 [D]
		Quadrupole:       0.0000000000       0.0000000000       0.0000000000 [D Angstrom]
		Quadrupole tensor [D Angstrom]
				       0.0000000000       0.0000000000       0.0000000000
				       0.0000000000       0.0000000000       0.0000000000
				       0.0000000000       0.0000000000       0.0000000000

	Starting bead for growth               : 0

	Number of atoms                        : 1

	Number of constraint bonds             : 0
	Number of constraint bends             : 0
	Number of constraint inversion bends   : 0
	Number of constraint torsions          : 0
	Number of constraint improper torsions : 0
	Number of constraint improper torsions : 0

	Number of bonds                        : 0
	Number of Urey-Bradleys                : 0
	Number of bends                        : 0
	Number of inversion bends              : 0
	Number of torsions                     : 0
	Number of improper torsions            : 0
	Number of improper torsions            : 0

	Number of bond/bond cross terms        : 0
	Number of bond/bend cross terms        : 0
	Number of bend/bend cross terms        : 0
	Number of stretch/torsion cross terms  : 0
	Number of bend/torsion cross terms     : 0

	Number of charges                      : 1
	Number of bond-dipoles                 : 0

	Number of intra Van der Waals                             : 0
	Number of intra charge-charge Coulomb                     : 0
	Number of intra charge-bonddipole Coulomb                 : 0
	Number of intra bonddipole-bonddipole Coulomb             : 0

	Number of excluded intra charge-charge Coulomb                     : 0
	Number of excluded intra charge-bonddipole Coulomb                 : 0
	Number of excluded intra bonddipole-bonddipole Coulomb             : 0

	Number of cbmc-config moves                               : 0

	Particle Moves:             
		ProbabilityTranslationMove:                  100.000000
			TranslationDirection:      XYZ
		Percentage of random translation moves:       0.000000
		Percentage of rotation moves:                 0.000000
		Percentage of partial reinsertion moves:      0.000000
		Percentage of regrow moves:                   0.000000
		Percentage of regrow-in-place moves:          0.000000
		Percentage of regrow-in-plane moves:          0.000000
		Percentage of identity-change moves:          0.000000
		Percentage of swap (insert/delete) moves:     0.000000
		Percentage of Widom insertion moves:          0.000000
		Percentage of surface-area moves:             0.000000
		Percentage of Gibbs particle-transfer moves:  0.000000
		Percentage of Gibbs identity-change moves:    0.000000

	System Moves (percentage per cycle):
		Percentage of parallel-tempering moves:       0.000000
		Percentage of hyper-parallel-tempering moves: 0.000000
		Percentage of parallel-mol-fraction moves:    0.000000
			   Component A: 0 B: 1
		Percentage of chiral inversion moves:         0.000000
		Percentage of volume-change moves:            0.000000
		Percentage of box-shape-change moves:         0.000000
		Percentage of Gibbs volume-change moves:      0.000000
		Percentage of Hybrid-NVE moves:               0.000000
		Percentage of Hybrid-NPH moves:               0.000000
		Percentage of Hybrid-NPHPR moves:             0.000000
		Percentage of framework-change moves:         0.000000
		Percentage of framework-shift moves:          0.000000

	Moves are restricted: No
	No biased sampling used for this component


	number of identity-config changes: 1
	--------------------------------------------
	nr fixed 1: 0 

	Number of pockets blocked in a unitcell: 0
		Pockets are NOT blocked for this component

Component 3 [atom4] (Adsorbate molecule)

	MoleculeDefinitions: TraPPE
	Component contains (at least some) atoms which are charged
	Component contains (at least some) atoms which are polarizable
	Component has a net charge of 0.000000

	Ideal chain Rosenbluth weight: 1.000000
	Ideal chain total energy: 0.000000

	Critical temparure [K]: 0.000000
	Critical pressure [Pa]: 0.000000
	Acentric factor [-]: 0.000000

	Vapour=stable, Liquid=metastable

	MolFraction:           1.0000000000 [-]
	Compressibility:       0.0000000000 [-]

	Density of the bulk fluid phase:       0.0000000000 [kg/m^3]

	Amount of excess molecules:       0.0000000000 [-]

	Conversion factor molecules/unit cell -> mol/kg:                inf [-]
	Conversion factor molecules/unit cell -> gr/gr:                inf [-]
	Conversion factor molecules/unit cell -> cm^3 STP/gr:                inf [-]
	Conversion factor molecules/unit cell -> cm^3 STP/cm^3:      37.2192747486 [-]
	Conversion factor mol/kg -> cm^3 STP/gr:      22.4139757476 [-]
	Conversion factor mol/kg -> cm^3 STP/cm^3:       0.0000000000 [-]

	Partial pressure: -16605402.00000000000000 [Pa]
	                    -124540.51499999999942 [Torr]
	                       -166.05402000000001 [bar]
	                       -163.88257586972614 [atm]

	Fugacity coefficient:      -1.0000000000 [-]

	Partial fugacity:  16605402.00000000000000 [Pa]
	                     124540.51499999999942 [Torr]
	                        166.05402000000001 [bar]
	                        163.88257586972614 [atm]

	Molecule contains 1 number of atoms
		atom:    0  is of type:    3 [     neut2] (group: 0)

	Molecule contains 0 chirality centers

	Molecule contains 1 number of groups

		group: 0 containing: 1 elements
		-------------------------------------------------
		the group is modelled as flexible, i.e. no constraints
		Mass: 39.948000 [a.u.]
		Mass: 66.335223 [kg/m^3]

		Rotational Degrees of freedom: 0
		Diagonalized inertia vector:       0.0000000000
		                                   0.0000000000
		                                   0.0000000000
		element: 0 atom: 0 [     neut2] Charge:  0.000000 Anisotropy: 0.000000 Connectivity: 0 ()

		Dipole:           0.0000000000 [D]
		Quadrupole:       0.0000000000       0.0000000000       0.0000000000 [D Angstrom]
		Quadrupole tensor [D Angstrom]
				       0.0000000000       0.0000000000       0.0000000000
				       0.0000000000       0.0000000000       0.0000000000
				       0.0000000000       0.0000000000       0.0000000000

	Starting bead for growth               : 0

	Number of atoms                        : 1

	Number of constraint bonds             : 0
	Number of constraint bends             : 0
	Number of constraint inversion bends   : 0
	Number of constraint torsions          : 0
	Number of constraint improper torsions : 0
	Number of constraint improper torsions : 0

	Number of bonds                        : 0
	Number of Urey-Bradleys                : 0
	Number of bends                        : 0
	Number of inversion bends              : 0
	Number of torsions                     : 0
	Number of improper torsions            : 0
	Number of improper torsions            : 0

	Number of bond/bond cross terms        : 0
	Number of bond/bend cross terms        : 0
	Number of bend/bend cross terms        : 0
	Number of stretch/torsion cross terms  : 0
	Number of bend/torsion cross terms     : 0

	Number of charges                      : 1
	Number of bond-dipoles                 : 0

	Number of intra Van der Waals                             : 0
	Number of intra charge-charge Coulomb                     : 0
	Number of intra charge-bonddipole Coulomb                 : 0
	Number of intra bonddipole-bonddipole Coulomb             : 0

	Number of excluded intra charge-charge Coulomb                     : 0
	Number of excluded intra charge-bonddipole Coulomb                 : 0
	Number of excluded intra bonddipole-bonddipole Coulomb             : 0

	Number of cbmc-config moves                               : 0

	Particle Moves:             
		ProbabilityTranslationMove:                  100.000000
			TranslationDirection:      XYZ
		Percentage of random translation moves:       0.000000
		Percentage of rotation moves:                 0.000000
		Percentage of partial reinsertion moves:      0.000000
		Percentage of regrow moves:                   0.000000
		Percentage of regrow-in-place moves:          0.000000
		Percentage of regrow-in-plane moves:          0.000000
		Percentage of identity-change moves:          0.000000
		Percentage of swap (insert/delete) moves:     0.000000
		Percentage of Widom insertion moves:          0.000000
		Percentage of surface-area moves:             0.000000
		Percentage of Gibbs particle-transfer moves:  0.000000
		Percentage of Gibbs identity-change moves:    0.000000

	System Moves (percentage per cycle):
		Percentage of parallel-tempering moves:       0.000000
		Percentage of hyper-parallel-tempering moves: 0.000000
		Percentage of parallel-mol-fraction moves:    0.000000
			   Component A: 0 B: 1
		Percentage of chiral inversion moves:         0.000000
		Percentage of volume-change moves:            0.000000
		Percentage of box-shape-change moves:         0.000000
		Percentage of Gibbs volume-change moves:      0.000000
		Percentage of Hybrid-NVE moves:               0.000000
		Percentage of Hybrid-NPH moves:               0.000000
		Percentage of Hybrid-NPHPR moves:             0.000000
		Percentage of framework-change moves:         0.000000
		Percentage of framework-shift moves:          0.000000

	Moves are restricted: No
	No biased sampling used for this component


	number of identity-config changes: 1
	--------------------------------------------
	nr fixed 1: 0 

	Number of pockets blocked in a unitcell: 0
		Pockets are NOT blocked for this component



System Properties
===========================================================================
Unit cell size: 10.000000 10.000000 10.000000
Cell angles (radians)  alpha: 1.570796 beta: 1.570796 gamma: 1.570796
Cell angles (degrees)  alpha: 90.000000 beta: 90.000000 gamma: 90.000000
Number of unitcells [a]: 1
Number of unitcells [b]: 1
Number of unitcells [c]: 1

TRICLINIC Boundary conditions: alpha!=90 or beta!=90 or gamma!=90

Cartesian axis A is collinear with crystallographic axis a
Cartesian axis B is collinear with (axb)xA
Cartesian axis C is collinear with (axb)

lengths of cell vectors:
 10.00000  10.00000  10.00000
cosines of cell angles:
  0.00000   0.00000   0.00000
perpendicular cell widths:
 10.00000  10.00000  10.00000
volume of the cell:  1000.000000000000 (A^3)

Orthogonalization matrix Box
Transforms fractional coordinates abc into orthonormal Cartesian coordinates xyz
Deorthogonalization matrix InverseBox
Transforms orthonormal Cartesian coordinates xyz into fractional coordinates xyz

Box[0]:
	   10.000000000000     0.000000000000     0.000000000000
	    0.000000000000    10.000000000000     0.000000000000
	    0.000000000000     0.000000000000    10.000000000000

Inverse box[0]:
	    0.100000000000     0.000000000000     0.000000000000
	    0.000000000000     0.100000000000     0.000000000000
	    0.000000000000     0.000000000000     0.100000000000


Unitcell box[0]:
	   10.000000000000     0.000000000000     0.000000000000
	    0.000000000000    10.000000000000     0.000000000000
	    0.000000000000     0.000000000000    10.000000000000

Unitcell inverse box[0]:
	    0.100000000000    -0.000000000000    -0.000000000000
	    0.000000000000     0.100000000000    -0.000000000000
	    0.000000000000     0.000000000000     0.100000000000

lengths of cell vectors (inverse box):
  0.10000   0.10000   0.10000
cosines of cell angles (inverse box):
 -0.00000  -0.00000  -0.00000
perpendicular cell widths (inverse):
  0.10000   0.10000   0.10000
volume of the cell:  1000.000000000000 (A^3)

No replicas are used
Framework is simulated as 'rigid'
Number of framework atoms: 0
Number of framework atoms in the unit cell: 0
Framework Mass:     0.000000000000 [g/mol]
Framework Density:     0.000000000000 [kg/m^3]                inf [cm^3/g]
Helium void fraction:    0.00000000
Available pore volume:    0.00000000 [A^3]           nan [cm^3/g]
Conversion factor from molecule/unit cell -> kmol/m^3: 1.66054, kmol/m^3 accesible pore volume: inf

Number Of Frameworks (per system): 0
----------------------------------------------------------------------

Current Atom Status
===========================================================================
Number of framework atoms        : 0
Number of cations molecules      : 0
Number of adsorbate molecules    : 4
Component    0 :    1 molecules
Component    1 :    1 molecules
Component    2 :    1 molecules
Component    3 :    1 molecules
Pseudo Atoms    0 [    plus]:    1 atoms
Pseudo Atoms    1 [     min]:    1 atoms
Pseudo Atoms    2 [   neut1]:    1 atoms
Pseudo Atoms    3 [   neut2]:    1 atoms


Current (running) Energy Status
===========================================================================

Internal energy:
Host stretch energy:                                               0.00000
Host UreyBradley energy:                                           0.00000
Host bend energy:                                                  0.00000
Host inversion-bend energy:                                        0.00000
Host torsion energy:                                               0.00000
Host improper torsion energy:                                      0.00000
Host out-of-plane energy:                                          0.00000
Host stretch/stretch energy:                                       0.00000
Host bend/bend energy:                                             0.00000
Host stretch/bend energy:                                          0.00000
Host stretch/torsion energy:                                       0.00000
Host bend/torsion energy:                                          0.00000

Adsorbate stretch energy:                                          0.00000
Adsorbate UreyBradley energy:                                      0.00000
Adsorbate bend energy:                                             0.00000
Adsorbate inversion-bend energy:                                   0.00000
Adsorbate torsion energy:                                          0.00000
Adsorbate improper torsion energy:                                 0.00000
Adsorbate out-of-plane energy:                                     0.00000
Adsorbate stretch/stretch energy:                                  0.00000
Adsorbate bend/bend energy:                                        0.00000
Adsorbate stretch/bend energy:                                     0.00000
Adsorbate stretch/torsion energy:                                  0.00000
Adsorbate bend/torsion energy:                                     0.00000
Adsorbate intra VDW energy:                                        0.00000
Adsorbate intra charge-charge Coulomb energy:                      0.00000
Adsorbate intra charge-bonddipole Coulomb energy:                  0.00000
Adsorbate intra bonddipole-bonddipole Coulomb energy:              0.00000

Cation stretch energy:                                             0.00000
Cation UreyBradley energy:                                         0.00000
Cation bend energy:                                                0.00000
Cation inversion-bend energy:                                      0.00000
Cation torsion energy:                                             0.00000
Cation improper torsion energy:                                    0.00000
Cation out-of-plane energy:                                        0.00000
Cation stretch/stretch energy:                                     0.00000
Cation bend/bend energy:                                           0.00000
Cation stretch/bend energy:                                        0.00000
Cation stretch/torsion energy:                                     0.00000
Cation bend/torsion energy:                                        0.00000
Cation intra VDW energy:                                           0.00000
Cation intra charge-charge Coulomb energy:                         0.00000
Cation intra charge-bonddipole Coulomb energy:                     0.00000
Cation intra bonddipole-bonddipole Coulomb energy:                 0.00000

Host/Host energy:                                                0.00000
	Host/Host VDW energy:                                            0.00000
	Host/Host Coulomb energy:                                        0.00000
	Host/Host charge-charge Real energy:                             0.00000
	Host/Host charge-charge Fourier energy:                          0.00000
	Host/Host charge-bonddipole Real energy:                         0.00000
	Host/Host charge-bonddipole Fourier energy:                      0.00000
	Host/Host bondipole-bonddipole Real energy:                      0.00000
	Host/Host bondipole-bonddipole Fourier energy:                   0.00000

Host/Adsorbate energy:                                           0.00000
	Host/Adsorbate VDW energy:                                       0.00000
	Host/Adsorbate Coulomb energy:                                   0.00000
	Host/Adsorbate charge-charge Real energy:                        0.00000
	Host/Adsorbate charge-charge Fourier energy:                     0.00000
	Host/Adsorbate charge-bonddipole Real energy:                    0.00000
	Host/Adsorbate charge-bonddipole Fourier energy:                 0.00000
	Host/Adsorbate bondipole-bonddipole Real energy:                 0.00000
	Host/Adsorbate bondipole-bonddipole Fourier energy:              0.00000

Host/Cation energy:                                              0.00000
	Host/Cation VDW energy:                                          0.00000
	Host/Cation Coulomb energy:                                      0.00000
	Host/Cation charge-charge Real energy:                           0.00000
	Host/Cation charge-charge Fourier energy:                        0.00000
	Host/Cation charge-bonddipole Real energy:                       0.00000
	Host/Cation charge-bonddipole Fourier energy:                    0.00000
	Host/Cation bondipole-bonddipole Real energy:                    0.00000
	Host/Cation bondipole-bonddipole Fourier energy:                 0.00000

Adsorbate/Adsorbate energy:                                     -167456.27035
	Adsorbate/Adsorbate VDW energy:                                       0.00000
	Adsorbate/Adsorbate Coulomb energy:                             -167456.27035
	Adsorbate/Adsorbate charge-charge Real energy:                   -43095.20733
	Adsorbate/Adsorbate charge-charge Fourier energy:               -124361.06302
	Adsorbate/Adsorbate charge-bonddipole Real energy:                    0.00000
	Adsorbate/Adsorbate charge-bonddipole Fourier energy:                 0.00000
	Adsorbate/Adsorbate bondipole-bonddipole Real energy:                 0.00000
	Adsorbate/Adsorbate bondipole-bonddipole Fourier energy:              0.00000

Adsorbate/Cation energy:                                              0.00000
	Adsorbate/Cation VDW energy:                                          0.00000
	Adsorbate/Cation Coulomb energy:                                      0.00000
	Adsorbate/Cation charge-charge Real energy:                           0.00000
	Adsorbate/Cation charge-charge Fourier energy:                        0.00000
	Adsorbate/Cation charge-bonddipole Real energy:                       0.00000
	Adsorbate/Cation charge-bonddipole Fourier energy:                    0.00000
	Adsorbate/Cation bondipole-bonddipole Real energy:                    0.00000
	Adsorbate/Cation bondipole-bonddipole Fourier energy:                 0.00000

Cation/Cation energy:                                              0.00000
	Cation/Cation VDW energy:                                          0.00000
	Cation/Cation Coulomb energy:                                      0.00000
	Cation/Cation charge-charge Real energy:                           0.00000
	Cation/Cation charge-charge Fourier energy:                        0.00000
	Cation/Cation charge-bonddipole Real energy:                       0.00000
	Cation/Cation charge-bonddipole Fourier energy:                    0.00000
	Cation/Cation bondipole-bonddipole Real energy:                    0.00000
	Cation/Cation bondipole-bonddipole Fourier energy:                 0.00000

Polarization energy:
	Host polarization energy:                                        0.00000
	Adsorbate polarization energy:                               -1749.78167
	Cation polarization energy:                                      0.00000
	Host back-polarization energy:                                        0.00000
	Adsorbate back-polarization energy:                                  25.82047
	Cation back-polarization energy:                                      0.00000

Tail-correction energy:                                          0.00000

Distance constraints energy:                                     0.00000
Angle constraints energy:                                        0.00000
Dihedral constraints energy:                                     0.00000
Inversion-bend constraints energy:                               0.00000
Out-of-plane distance constraints energy:                        0.00000
Exclusion constraints energy:                                    0.00000

===================================================================
Total energy: -169180.231559515174
	Total Van der Waals: 0.000000
	Total Coulomb: -167456.270354

	Total Polarization: -1723.961205







+++++++++++++++++++++++++++++++++++++++++++++++++++++++++++++++++++++++++
Starting simulation
+++++++++++++++++++++++++++++++++++++++++++++++++++++++++++++++++++++++++

+++++++++++++++++++++++++++++++++++++++++++++++++++++++++++++++++++++++++
Finishing simulation
+++++++++++++++++++++++++++++++++++++++++++++++++++++++++++++++++++++++++




Current (running) Energy Status
===========================================================================

Internal energy:
Host stretch energy:                                               0.00000
Host UreyBradley energy:                                           0.00000
Host bend energy:                                                  0.00000
Host inversion-bend energy:                                        0.00000
Host torsion energy:                                               0.00000
Host improper torsion energy:                                      0.00000
Host out-of-plane energy:                                          0.00000
Host stretch/stretch energy:                                       0.00000
Host bend/bend energy:                                             0.00000
Host stretch/bend energy:                                          0.00000
Host stretch/torsion energy:                                       0.00000
Host bend/torsion energy:                                          0.00000

Adsorbate stretch energy:                                          0.00000
Adsorbate UreyBradley energy:                                      0.00000
Adsorbate bend energy:                                             0.00000
Adsorbate inversion-bend energy:                                   0.00000
Adsorbate torsion energy:                                          0.00000
Adsorbate improper torsion energy:                                 0.00000
Adsorbate out-of-plane energy:                                     0.00000
Adsorbate stretch/stretch energy:                                  0.00000
Adsorbate bend/bend energy:                                        0.00000
Adsorbate stretch/bend energy:                                     0.00000
Adsorbate stretch/torsion energy:                                  0.00000
Adsorbate bend/torsion energy:                                     0.00000
Adsorbate intra VDW energy:                                        0.00000
Adsorbate intra charge-charge Coulomb energy:                      0.00000
Adsorbate intra charge-bonddipole Coulomb energy:                  0.00000
Adsorbate intra bonddipole-bonddipole Coulomb energy:              0.00000

Cation stretch energy:                                             0.00000
Cation UreyBradley energy:                                         0.00000
Cation bend energy:                                                0.00000
Cation inversion-bend energy:                                      0.00000
Cation torsion energy:                                             0.00000
Cation improper torsion energy:                                    0.00000
Cation out-of-plane energy:                                        0.00000
Cation stretch/stretch energy:                                     0.00000
Cation bend/bend energy:                                           0.00000
Cation stretch/bend energy:                                        0.00000
Cation stretch/torsion energy:                                     0.00000
Cation bend/torsion energy:                                        0.00000
Cation intra VDW energy:                                           0.00000
Cation intra charge-charge Coulomb energy:                         0.00000
Cation intra charge-bonddipole Coulomb energy:                     0.00000
Cation intra bonddipole-bonddipole Coulomb energy:                 0.00000

Host/Host energy:                                                0.00000
	Host/Host VDW energy:                                            0.00000
	Host/Host Coulomb energy:                                        0.00000
	Host/Host charge-charge Real energy:                             0.00000
	Host/Host charge-charge Fourier energy:                          0.00000
	Host/Host charge-bonddipole Real energy:                         0.00000
	Host/Host charge-bonddipole Fourier energy:                      0.00000
	Host/Host bondipole-bonddipole Real energy:                      0.00000
	Host/Host bondipole-bonddipole Fourier energy:                   0.00000

Host/Adsorbate energy:                                           0.00000
	Host/Adsorbate VDW energy:                                       0.00000
	Host/Adsorbate Coulomb energy:                                   0.00000
	Host/Adsorbate charge-charge Real energy:                        0.00000
	Host/Adsorbate charge-charge Fourier energy:                     0.00000
	Host/Adsorbate charge-bonddipole Real energy:                    0.00000
	Host/Adsorbate charge-bonddipole Fourier energy:                 0.00000
	Host/Adsorbate bondipole-bonddipole Real energy:                 0.00000
	Host/Adsorbate bondipole-bonddipole Fourier energy:              0.00000

Host/Cation energy:                                              0.00000
	Host/Cation VDW energy:                                          0.00000
	Host/Cation Coulomb energy:                                      0.00000
	Host/Cation charge-charge Real energy:                           0.00000
	Host/Cation charge-charge Fourier energy:                        0.00000
	Host/Cation charge-bonddipole Real energy:                       0.00000
	Host/Cation charge-bonddipole Fourier energy:                    0.00000
	Host/Cation bondipole-bonddipole Real energy:                    0.00000
	Host/Cation bondipole-bonddipole Fourier energy:                 0.00000

Adsorbate/Adsorbate energy:                                     -167456.27035
	Adsorbate/Adsorbate VDW energy:                                       0.00000
	Adsorbate/Adsorbate Coulomb energy:                             -167456.27035
	Adsorbate/Adsorbate charge-charge Real energy:                   -43095.20733
	Adsorbate/Adsorbate charge-charge Fourier energy:               -124361.06302
	Adsorbate/Adsorbate charge-bonddipole Real energy:                    0.00000
	Adsorbate/Adsorbate charge-bonddipole Fourier energy:                 0.00000
	Adsorbate/Adsorbate bondipole-bonddipole Real energy:                 0.00000
	Adsorbate/Adsorbate bondipole-bonddipole Fourier energy:              0.00000

Adsorbate/Cation energy:                                              0.00000
	Adsorbate/Cation VDW energy:                                          0.00000
	Adsorbate/Cation Coulomb energy:                                      0.00000
	Adsorbate/Cation charge-charge Real energy:                           0.00000
	Adsorbate/Cation charge-charge Fourier energy:                        0.00000
	Adsorbate/Cation charge-bonddipole Real energy:                       0.00000
	Adsorbate/Cation charge-bonddipole Fourier energy:                    0.00000
	Adsorbate/Cation bondipole-bonddipole Real energy:                    0.00000
	Adsorbate/Cation bondipole-bonddipole Fourier energy:                 0.00000

Cation/Cation energy:                                              0.00000
	Cation/Cation VDW energy:                                          0.00000
	Cation/Cation Coulomb energy:                                      0.00000
	Cation/Cation charge-charge Real energy:                           0.00000
	Cation/Cation charge-charge Fourier energy:                        0.00000
	Cation/Cation charge-bonddipole Real energy:                       0.00000
	Cation/Cation charge-bonddipole Fourier energy:                    0.00000
	Cation/Cation bondipole-bonddipole Real energy:                    0.00000
	Cation/Cation bondipole-bonddipole Fourier energy:                 0.00000

Polarization energy:
	Host polarization energy:                                        0.00000
	Adsorbate polarization energy:                               -1749.78167
	Cation polarization energy:                                      0.00000
	Host back-polarization energy:                                        0.00000
	Adsorbate back-polarization energy:                                  25.82047
	Cation back-polarization energy:                                      0.00000

Tail-correction energy:                                          0.00000

Distance constraints energy:                                     0.00000
Angle constraints energy:                                        0.00000
Dihedral constraints energy:                                     0.00000
Inversion-bend constraints energy:                               0.00000
Out-of-plane distance constraints energy:                        0.00000
Exclusion constraints energy:                                    0.00000

===================================================================
Total energy: -169180.231559515174
	Total Van der Waals: 0.000000
	Total Coulomb: -167456.270354

	Total Polarization: -1723.961205

Monte-Carlo moves statistics
===========================================================================

Performance of the small-mc scheme
==================================

Component 0 [atom1]
----------------------------------------------
Bead: 0
	maximum length change                         : 0.300000
	maximum rotation angle for cone angle         : 0.300000
	maximum rotation angle for position on a cone : 0.300000
	length change acceptence ratio                : 0.000000 [%]
	rotation cone angle acceptence ratio          : 0.000000 [%]
	rotation angle cone position acceptence ratio : 0.000000 [%]
	overall acceptence ratio                      : 0.000000 [%]

Component 1 [atom2]
----------------------------------------------
Bead: 0
	maximum length change                         : 0.300000
	maximum rotation angle for cone angle         : 0.300000
	maximum rotation angle for position on a cone : 0.300000
	length change acceptence ratio                : 0.000000 [%]
	rotation cone angle acceptence ratio          : 0.000000 [%]
	rotation angle cone position acceptence ratio : 0.000000 [%]
	overall acceptence ratio                      : 0.000000 [%]

Component 2 [atom3]
----------------------------------------------
Bead: 0
	maximum length change                         : 0.300000
	maximum rotation angle for cone angle         : 0.300000
	maximum rotation angle for position on a cone : 0.300000
	length change acceptence ratio                : 0.000000 [%]
	rotation cone angle acceptence ratio          : 0.000000 [%]
	rotation angle cone position acceptence ratio : 0.000000 [%]
	overall acceptence ratio                      : 0.000000 [%]

Component 3 [atom4]
----------------------------------------------
Bead: 0
	maximum length change                         : 0.300000
	maximum rotation angle for cone angle         : 0.300000
	maximum rotation angle for position on a cone : 0.300000
	length change acceptence ratio                : 0.000000 [%]
	rotation cone angle acceptence ratio          : 0.000000 [%]
	rotation angle cone position acceptence ratio : 0.000000 [%]
	overall acceptence ratio                      : 0.000000 [%]



Performance of the translation move:
======================================
Component 0 [atom1]
	total        0.000000 0.000000 0.000000
	succesfull   0.000000 0.000000 0.000000
	accepted   0.000000 0.000000 0.000000
	displacement 1.300000 1.300000 1.300000

Component 1 [atom2]
	total        0.000000 0.000000 0.000000
	succesfull   0.000000 0.000000 0.000000
	accepted   0.000000 0.000000 0.000000
	displacement 1.300000 1.300000 1.300000

Component 2 [atom3]
	total        0.000000 0.000000 0.000000
	succesfull   0.000000 0.000000 0.000000
	accepted   0.000000 0.000000 0.000000
	displacement 1.300000 1.300000 1.300000

Component 3 [atom4]
	total        0.000000 0.000000 0.000000
	succesfull   0.000000 0.000000 0.000000
	accepted   0.000000 0.000000 0.000000
	displacement 1.300000 1.300000 1.300000


Rotation move was OFF for all components

Random translation move was OFF for all components

Swap addition move was OFF for all components

Swap deletion move was OFF for all components

Reinsertion move was OFF for all components

Reinsertion-in-plane move was OFF for all components

Reinsertion-in-place move was OFF for all components

Partial reinsertion move was OFF for all components

Identity change move was OFF for all components

Parallel tempering move was OFF

Hyper parallel tempering move was OFF

Parallel mol-fraction move was OFF

Chiral inversion move was OFF

Volume move was OFF

Box shape change move was OFF

Framework change move was OFF

Framework shift move was OFF

Hybrid MC/MD move in the NVE-ensemble was OFF

Hybrid MC/MD in the NPH-ensemble move was OFF

Hybrid MC/MD in the NPH-ensemble (Parrinello-Rahman) move was OFF

Gibbs volume change move was OFF

Gibbs swap move was OFF for all components

Gibbs identity change move was OFF for all components





Current (running) Energy Status
===========================================================================

Internal energy:
Host stretch energy:                                               0.00000
Host UreyBradley energy:                                           0.00000
Host bend energy:                                                  0.00000
Host inversion-bend energy:                                        0.00000
Host torsion energy:                                               0.00000
Host improper torsion energy:                                      0.00000
Host out-of-plane energy:                                          0.00000
Host stretch/stretch energy:                                       0.00000
Host bend/bend energy:                                             0.00000
Host stretch/bend energy:                                          0.00000
Host stretch/torsion energy:                                       0.00000
Host bend/torsion energy:                                          0.00000

Adsorbate stretch energy:                                          0.00000
Adsorbate UreyBradley energy:                                      0.00000
Adsorbate bend energy:                                             0.00000
Adsorbate inversion-bend energy:                                   0.00000
Adsorbate torsion energy:                                          0.00000
Adsorbate improper torsion energy:                                 0.00000
Adsorbate out-of-plane energy:                                     0.00000
Adsorbate stretch/stretch energy:                                  0.00000
Adsorbate bend/bend energy:                                        0.00000
Adsorbate stretch/bend energy:                                     0.00000
Adsorbate stretch/torsion energy:                                  0.00000
Adsorbate bend/torsion energy:                                     0.00000
Adsorbate intra VDW energy:                                        0.00000
Adsorbate intra charge-charge Coulomb energy:                      0.00000
Adsorbate intra charge-bonddipole Coulomb energy:                  0.00000
Adsorbate intra bonddipole-bonddipole Coulomb energy:              0.00000

Cation stretch energy:                                             0.00000
Cation UreyBradley energy:                                         0.00000
Cation bend energy:                                                0.00000
Cation inversion-bend energy:                                      0.00000
Cation torsion energy:                                             0.00000
Cation improper torsion energy:                                    0.00000
Cation out-of-plane energy:                                        0.00000
Cation stretch/stretch energy:                                     0.00000
Cation bend/bend energy:                                           0.00000
Cation stretch/bend energy:                                        0.00000
Cation stretch/torsion energy:                                     0.00000
Cation bend/torsion energy:                                        0.00000
Cation intra VDW energy:                                           0.00000
Cation intra charge-charge Coulomb energy:                         0.00000
Cation intra charge-bonddipole Coulomb energy:                     0.00000
Cation intra bonddipole-bonddipole Coulomb energy:                 0.00000

Host/Host energy:                                                0.00000
	Host/Host VDW energy:                                            0.00000
	Host/Host Coulomb energy:                                        0.00000
	Host/Host charge-charge Real energy:                             0.00000
	Host/Host charge-charge Fourier energy:                          0.00000
	Host/Host charge-bonddipole Real energy:                         0.00000
	Host/Host charge-bonddipole Fourier energy:                      0.00000
	Host/Host bondipole-bonddipole Real energy:                      0.00000
	Host/Host bondipole-bonddipole Fourier energy:                   0.00000

Host/Adsorbate energy:                                           0.00000
	Host/Adsorbate VDW energy:                                       0.00000
	Host/Adsorbate Coulomb energy:                                   0.00000
	Host/Adsorbate charge-charge Real energy:                        0.00000
	Host/Adsorbate charge-charge Fourier energy:                     0.00000
	Host/Adsorbate charge-bonddipole Real energy:                    0.00000
	Host/Adsorbate charge-bonddipole Fourier energy:                 0.00000
	Host/Adsorbate bondipole-bonddipole Real energy:                 0.00000
	Host/Adsorbate bondipole-bonddipole Fourier energy:              0.00000

Host/Cation energy:                                              0.00000
	Host/Cation VDW energy:                                          0.00000
	Host/Cation Coulomb energy:                                      0.00000
	Host/Cation charge-charge Real energy:                           0.00000
	Host/Cation charge-charge Fourier energy:                        0.00000
	Host/Cation charge-bonddipole Real energy:                       0.00000
	Host/Cation charge-bonddipole Fourier energy:                    0.00000
	Host/Cation bondipole-bonddipole Real energy:                    0.00000
	Host/Cation bondipole-bonddipole Fourier energy:                 0.00000

Adsorbate/Adsorbate energy:                                     -167456.27035
	Adsorbate/Adsorbate VDW energy:                                       0.00000
	Adsorbate/Adsorbate Coulomb energy:                             -167456.27035
	Adsorbate/Adsorbate charge-charge Real energy:                   -43095.20733
	Adsorbate/Adsorbate charge-charge Fourier energy:               -124361.06302
	Adsorbate/Adsorbate charge-bonddipole Real energy:                    0.00000
	Adsorbate/Adsorbate charge-bonddipole Fourier energy:                 0.00000
	Adsorbate/Adsorbate bondipole-bonddipole Real energy:                 0.00000
	Adsorbate/Adsorbate bondipole-bonddipole Fourier energy:              0.00000

Adsorbate/Cation energy:                                              0.00000
	Adsorbate/Cation VDW energy:                                          0.00000
	Adsorbate/Cation Coulomb energy:                                      0.00000
	Adsorbate/Cation charge-charge Real energy:                           0.00000
	Adsorbate/Cation charge-charge Fourier energy:                        0.00000
	Adsorbate/Cation charge-bonddipole Real energy:                       0.00000
	Adsorbate/Cation charge-bonddipole Fourier energy:                    0.00000
	Adsorbate/Cation bondipole-bonddipole Real energy:                    0.00000
	Adsorbate/Cation bondipole-bonddipole Fourier energy:                 0.00000

Cation/Cation energy:                                              0.00000
	Cation/Cation VDW energy:                                          0.00000
	Cation/Cation Coulomb energy:                                      0.00000
	Cation/Cation charge-charge Real energy:                           0.00000
	Cation/Cation charge-charge Fourier energy:                        0.00000
	Cation/Cation charge-bonddipole Real energy:                       0.00000
	Cation/Cation charge-bonddipole Fourier energy:                    0.00000
	Cation/Cation bondipole-bonddipole Real energy:                    0.00000
	Cation/Cation bondipole-bonddipole Fourier energy:                 0.00000

Polarization energy:
	Host polarization energy:                                        0.00000
	Adsorbate polarization energy:                               -1749.78167
	Cation polarization energy:                                      0.00000
	Host back-polarization energy:                                        0.00000
	Adsorbate back-polarization energy:                                  25.82047
	Cation back-polarization energy:                                      0.00000

Tail-correction energy:                                          0.00000

Distance constraints energy:                                     0.00000
Angle constraints energy:                                        0.00000
Dihedral constraints energy:                                     0.00000
Inversion-bend constraints energy:                               0.00000
Out-of-plane distance constraints energy:                        0.00000
Exclusion constraints energy:                                    0.00000

===================================================================
Total energy: -169180.231559515174
	Total Van der Waals: 0.000000
	Total Coulomb: -167456.270354

	Total Polarization: -1723.961205



Energy-drift status
===========================================================================

Internal energy:
Host stretch energy-drift:                                           0
Host UreyBradley energy-drift:                                       0
Host bend energy-drift:                                              0
Host inversion-bend energy-drift:                                    0
Host torsion energy-drift:                                           0
Host torsion improper energy-drift:                                  0
Host out-of-plane energy-drift:                                      0
Host stretch/stretch energy-drift:                                   0
Host stretch/bend energy-drift:                                      0
Host bend/bend energy-drift:                                         0
Host stretch/torsion energy-drift:                                   0
Host bend/torsion energy-drift:                                      0

Adsorbate stretch energy-drift:                                      0
Adsorbate UreyBradley energy-drift:                                  0
Adsorbate bend energy-drift:                                         0
Adsorbate inversion-bend energy-drift:                               0
Adsorbate torsion energy-drift:                                      0
Adsorbate improper torsion energy-drift:                             0
Adsorbate out-of-plane energy-drift:                                 0
Adsorbate stretch/stretch energy-drift:                              0
Adsorbate stretch/bend energy-drift:                                 0
Adsorbate bend/bend energy-drift:                                    0
Adsorbate stretch/torsion energy-drift:                              0
Adsorbate bend/torsion energy-drift:                                 0
Adsorbate intra VDW energy-drift:                                    0
Adsorbate intra charge-charge Coulomb energy-drift:                  0
Adsorbate intra charge-bonddipole Coulomb energy-drift:              0
Adsorbate intra bonddipole-bonddipole Coulomb energy-drift:          0

Cation stretch energy-drift:                                         0
Cation UreyBradley energy-drift:                                     0
Cation bend energy-drift:                                            0
Cation inversion-bend energy-drift:                                  0
Cation torsion energy-drift:                                         0
Cation improper torsion energy-drift:                                0
Cation out-of-plane energy-drift:                                    0
Cation stretch/stretch energy-drift:                                 0
Cation stretch/bend energy-drift:                                    0
Cation bend/bend energy-drift:                                       0
Cation stretch/torsion energy-drift:                                 0
Cation bend/torsion energy-drift:                                    0
Cation intra VDW energy-drift:                                       0
Cation intra Coulomb charge-charge energy-drift:                     0
Cation intra Coulomb charge-bonddipole energy-drift:                 0
Cation intra Coulomb bonddipole-bonddipole energy-drift:             0

Host/Host energy-drift:                                              0
	Host/Host VDW energy-drift:                                        0
	Host/Host Coulomb energy-drift:                                    0
		Host/Host Real charge-charge energy-drift:                       0
		Host/Host Fourier charge-charge energy-drift:                    0
		Host/Host Real charge-bonddipole energy-drift:                   0
		Host/Host Fourier charge-bonddipole energy-drift:                0
		Host/Host Real bonddipole-bonddipole energy-drift:               0
		Host/Host Fourier bonddipole-bonddipole energy-drift:            0
Host/Adsorbate energy-drift:                                         0
	Host/Adsorbate VDW energy-drift:                                   0
	Host/Adsorbate Coulomb energy-drift:                               0
		Host/Adsorbate Real charge-charge energy-drift:                  0
		Host/Adsorbate Fourier charge-charge energy-drift:               0
		Host/Adsorbate Real charge-bonddipole energy-drift:              0
		Host/Adsorbate Fourier charge-bonddipole energy-drift:           0
		Host/Adsorbate Real bonddipole-bonddipole energy-drift:          0
		Host/Adsorbate Fourier bonddipole-bonddipole energy-drift:       0
Host/Cation energy-drift:                                            0
	Host/Cation VDW energy-drift:                                      0
	Host/Cation Coulomb energy-drift:                                  0
		Host/Cation Real charge-charge energy-drift:                     0
		Host/Cation Fourier charge-charge energy-drift:                  0
		Host/Cation Real charge-bonddipole energy-drift:                 0
		Host/Cation Fourier charge-bonddipole energy-drift:              0
		Host/Cation Real bonddipole-bonddipole energy-drift:             0
		Host/Cation Fourier bonddipole-bonddipole energy-drift:          0
Adsorbate/Adsorbate energy-drift:                                     0
	Adsorbate/Adsorbate VDW energy-drift:                               0
	Adsorbate/Adsorbate Coulomb energy-drift:                           0
		Adsorbate/Adsorbate Real charge-charge energy-drift:              0
		Adsorbate/Adsorbate Fourier charge-charge energy-drift:           0
		Adsorbate/Adsorbate Real charge-bonddipole energy-drift:          0
		Adsorbate/Adsorbate Fourier charge-bonddipole energy-drift:       0
		Adsorbate/Adsorbate Real bonddipole-bonddipole energy-drift:      0
		Adsorbate/Adsorbate Fourier bonddipole-bonddipole energy-drift:   0
Cation/Cation energy-drift:                                           0
	Cation/Cation VDW energy-drift:                                     0
	Cation/Cation Coulomb energy-drift:                                 0
		Cation/Cation Real charge-charge energy-drift:                    0
		Cation/Cation Fourier charge-charge energy-drift:                 0
		Cation/Cation Real charge-bonddipole energy-drift:                0
		Cation/Cation Fourier charge-bonddipole energy-drift:             0
		Cation/Cation Real bonddipole-bonddipole energy-drift:            0
		Cation/Cation Fourier bonddipole-bonddipole energy-drift:         0
Adsorbate/Cation energy-drift:                                        0
	Adsorbate/Cation VDW energy-drift:                                  0
	Adsorbate/Cation Coulomb energy-drift:                              0
		Adsorbate/Cation Real charge-charge energy-drift:                 0
		Adsorbate/Cation Fourier charge-charge energy-drift:              0
		Adsorbate/Cation Real charge-bonddipole energy-drift:             0
		Adsorbate/Cation Fourier charge-bonddipole energy-drift:          0
		Adsorbate/Cation Real bonddipole-bonddipole energy-drift:         0
		Adsorbate/Cation Fourier bonddipole-bonddipole energy-drift:      0

Polarization energy-drift:
	Host polarization energy-drift:                0
	Adsorbate polarization energy-drift:           0
	Cation polarization energy-drift:              0
	Host back-polarization energy-drift:                0
	Adsorbate back-polarization energy-drift:           0
	Cation back-polarization energy-drift:              0

Tail-correction energy-drift:                  0

Distance constraints energy-drift:                  0
Angle constraints energy-drift:                     0
Dihedral constraints energy-drift:                  0
Inversion-bend constraints energy-drift:                    0
Out-of-plane distance constraints energy-drift:                    0
Exclusion constraints energy-drift:                 0

===================================================================
Total energy-drift: 0


Component 0 [atom1]
-------------------------------------------------------------
	Block[ 0] 0.00000            [-]
	Block[ 1] 0.00000            [-]
	Block[ 2] 0.00000            [-]
	Block[ 3] 0.00000            [-]
	Block[ 4] 0.00000            [-]

Component 1 [atom2]
-------------------------------------------------------------
	Block[ 0] 0.00000            [-]
	Block[ 1] 0.00000            [-]
	Block[ 2] 0.00000            [-]
	Block[ 3] 0.00000            [-]
	Block[ 4] 0.00000            [-]

Component 2 [atom3]
-------------------------------------------------------------
	Block[ 0] 0.00000            [-]
	Block[ 1] 0.00000            [-]
	Block[ 2] 0.00000            [-]
	Block[ 3] 0.00000            [-]
	Block[ 4] 0.00000            [-]

Component 3 [atom4]
-------------------------------------------------------------
	Block[ 0] 0.00000            [-]
	Block[ 1] 0.00000            [-]
	Block[ 2] 0.00000            [-]
	Block[ 3] 0.00000            [-]
	Block[ 4] 0.00000            [-]






Average properties of the system[0]:
========================================================================

Average temperature:
====================
	Block[ 0]            0.00000 [K]
	Block[ 1]            0.00000 [K]
	Block[ 2]            0.00000 [K]
	Block[ 3]            0.00000 [K]
	Block[ 4]            0.00000 [K]
	------------------------------------------------------------------------------
	Average              0.00000 [K] +/-            0.00000 [K]

Average Pressure:
=================
	Block[ 0]            0.00000 [Pa]
	Block[ 1]            0.00000 [Pa]
	Block[ 2]            0.00000 [Pa]
	Block[ 3]            0.00000 [Pa]
	Block[ 4]            0.00000 [Pa]
	------------------------------------------------------------------------------
	Average              0.00000 [Pa] +/-            0.00000 [Pa]
	Average              0.00000 [bar] +/-            0.00000 [bar]
	Average              0.00000 [atm] +/-            0.00000 [atm]
	Average              0.00000 [Torr] +/-            0.00000 [Torr]

Average Volume:
=================
	Block[ 0]            0.00000 [A^3]
	Block[ 1]            0.00000 [A^3]
	Block[ 2]            0.00000 [A^3]
	Block[ 3]            0.00000 [A^3]
	Block[ 4]            0.00000 [A^3]
	------------------------------------------------------------------------------
	Average              0.00000 [A^3] +/-            0.00000 [A^3]

Average Box-lengths:
====================
	Block[ 0]            0.00000 [A^3]
	Block[ 1]            0.00000 [A^3]
	Block[ 2]            0.00000 [A^3]
	Block[ 3]            0.00000 [A^3]
	Block[ 4]            0.00000 [A^3]
	------------------------------------------------------------------------------
	Average Box.ax             0.00000 [A^3] +/-            0.00000 [A^3]

	Block[ 0]            0.00000 [A^3]
	Block[ 1]            0.00000 [A^3]
	Block[ 2]            0.00000 [A^3]
	Block[ 3]            0.00000 [A^3]
	Block[ 4]            0.00000 [A^3]
	------------------------------------------------------------------------------
	Average Box.by             0.00000 [A^3] +/-            0.00000 [A^3]

	Block[ 0]            0.00000 [A^3]
	Block[ 1]            0.00000 [A^3]
	Block[ 2]            0.00000 [A^3]
	Block[ 3]            0.00000 [A^3]
	Block[ 4]            0.00000 [A^3]
	------------------------------------------------------------------------------
	Average Box.cz             0.00000 [A^3] +/-            0.00000 [A^3]
	Block[ 0]            0.00000 [A^3]
	Block[ 1]            0.00000 [A^3]
	Block[ 2]            0.00000 [A^3]
	Block[ 3]            0.00000 [A^3]
	Block[ 4]            0.00000 [A^3]
	------------------------------------------------------------------------------
	Average alpha angle             0.00000 [degrees] +/-            0.00000 [degrees]
	Block[ 0]            0.00000 [A^3]
	Block[ 1]            0.00000 [A^3]
	Block[ 2]            0.00000 [A^3]
	Block[ 3]            0.00000 [A^3]
	Block[ 4]            0.00000 [A^3]
	------------------------------------------------------------------------------
[...]
	Block[ 0]            0.00000 [K]
	Block[ 1]            0.00000 [K]
	Block[ 2]            0.00000 [K]
	Block[ 3]            0.00000 [K]
	Block[ 4]            0.00000 [K]
	------------------------------------------------------------------------------
	Average              0.00000 [K] +/-            0.00000 [K]

Average Cation Intra bonddipole-bonddipole Coulomb energy:
====================================
	Block[ 0]            0.00000 [K]
	Block[ 1]            0.00000 [K]
	Block[ 2]            0.00000 [K]
	Block[ 3]            0.00000 [K]
	Block[ 4]            0.00000 [K]
	------------------------------------------------------------------------------
	Average              0.00000 [K] +/-            0.00000 [K]

Average Host-Host energy:
=========================
	Block[ 0] 0.00000            Van der Waals: 0.00000            Coulomb: 0.00000            [K]
	Block[ 1] 0.00000            Van der Waals: 0.00000            Coulomb: 0.00000            [K]
	Block[ 2] 0.00000            Van der Waals: 0.00000            Coulomb: 0.00000            [K]
	Block[ 3] 0.00000            Van der Waals: 0.00000            Coulomb: 0.00000            [K]
	Block[ 4] 0.00000            Van der Waals: 0.00000            Coulomb: 0.00000            [K]
	------------------------------------------------------------------------------
	Average   0.00000            Van der Waals: 0.000000           Coulomb: 0.00000            [K]
	      +/- 0.00000                       +/- 0.000000                +/- 0.00000            [K]

Average Adsorbate-Adsorbate energy:
===================================
	Block[ 0] 0.00000            Van der Waals: 0.00000            Coulomb: 0.00000            [K]
	Block[ 1] 0.00000            Van der Waals: 0.00000            Coulomb: 0.00000            [K]
	Block[ 2] 0.00000            Van der Waals: 0.00000            Coulomb: 0.00000            [K]
	Block[ 3] 0.00000            Van der Waals: 0.00000            Coulomb: 0.00000            [K]
	Block[ 4] 0.00000            Van der Waals: 0.00000            Coulomb: 0.00000            [K]
	------------------------------------------------------------------------------
	Average   0.00000            Van der Waals: 0.000000           Coulomb: 0.00000            [K]
	      +/- 0.00000                       +/- 0.000000                +/- 0.00000            [K]

Average Cation-Cation energy:
=============================
	Block[ 0] 0.00000            Van der Waals: 0.00000            Coulomb: 0.00000            [K]
	Block[ 1] 0.00000            Van der Waals: 0.00000            Coulomb: 0.00000            [K]
	Block[ 2] 0.00000            Van der Waals: 0.00000            Coulomb: 0.00000            [K]
	Block[ 3] 0.00000            Van der Waals: 0.00000            Coulomb: 0.00000            [K]
	Block[ 4] 0.00000            Van der Waals: 0.00000            Coulomb: 0.00000            [K]
	------------------------------------------------------------------------------
	Average   0.00000            Van der Waals: 0.000000           Coulomb: 0.00000            [K]
	      +/- 0.00000                       +/- 0.000000                +/- 0.00000            [K]

Average Host-Adsorbate energy:
==============================
	Block[ 0] 0.00000            Van der Waals: 0.00000            Coulomb: 0.00000            [K]
	Block[ 1] 0.00000            Van der Waals: 0.00000            Coulomb: 0.00000            [K]
	Block[ 2] 0.00000            Van der Waals: 0.00000            Coulomb: 0.00000            [K]
	Block[ 3] 0.00000            Van der Waals: 0.00000            Coulomb: 0.00000            [K]
	Block[ 4] 0.00000            Van der Waals: 0.00000            Coulomb: 0.00000            [K]
	------------------------------------------------------------------------------
	Average   0.00000            Van der Waals: 0.000000           Coulomb: 0.00000            [K]
	      +/- 0.00000                       +/- 0.000000                +/- 0.00000            [K]

Average Host-Cation energy:
===========================
	Block[ 0] 0.00000            Van der Waals: 0.00000            Coulomb: 0.00000            [K]
	Block[ 1] 0.00000            Van der Waals: 0.00000            Coulomb: 0.00000            [K]
	Block[ 2] 0.00000            Van der Waals: 0.00000            Coulomb: 0.00000            [K]
	Block[ 3] 0.00000            Van der Waals: 0.00000            Coulomb: 0.00000            [K]
	Block[ 4] 0.00000            Van der Waals: 0.00000            Coulomb: 0.00000            [K]
	------------------------------------------------------------------------------
	Average   0.00000            Van der Waals: 0.000000           Coulomb: 0.00000            [K]
	      +/- 0.00000                       +/- 0.000000                +/- 0.00000            [K]

Average Adsorbate-Cation energy:
================================
	Block[ 0] 0.00000            Van der Waals: 0.00000            Coulomb: 0.00000            [K]
	Block[ 1] 0.00000            Van der Waals: 0.00000            Coulomb: 0.00000            [K]
	Block[ 2] 0.00000            Van der Waals: 0.00000            Coulomb: 0.00000            [K]
	Block[ 3] 0.00000            Van der Waals: 0.00000            Coulomb: 0.00000            [K]
	Block[ 4] 0.00000            Van der Waals: 0.00000            Coulomb: 0.00000            [K]
	------------------------------------------------------------------------------
	Average   0.00000            Van der Waals: 0.000000           Coulomb: 0.00000            [K]
	      +/- 0.00000                       +/- 0.000000                +/- 0.00000            [K]

Host polarization energy:
=======================
	Block[ 0]            0.00000 [K]
	Block[ 1]            0.00000 [K]
	Block[ 2]            0.00000 [K]
	Block[ 3]            0.00000 [K]
	Block[ 4]            0.00000 [K]
	------------------------------------------------------------------------------
	Average              0.00000 [K] +/-            0.00000 [K]

Adsorbate polarization energy:
=======================
	Block[ 0]            0.00000 [K]
	Block[ 1]            0.00000 [K]
	Block[ 2]            0.00000 [K]
	Block[ 3]            0.00000 [K]
	Block[ 4]            0.00000 [K]
	------------------------------------------------------------------------------
	Average              0.00000 [K] +/-            0.00000 [K]

Cation polarization energy:
=======================
	Block[ 0]            0.00000 [K]
	Block[ 1]            0.00000 [K]
	Block[ 2]            0.00000 [K]
	Block[ 3]            0.00000 [K]
	Block[ 4]            0.00000 [K]
	------------------------------------------------------------------------------
	Average              0.00000 [K] +/-            0.00000 [K]

Host back-polarization energy:
=======================
	Block[ 0]            0.00000 [K]
	Block[ 1]            0.00000 [K]
	Block[ 2]            0.00000 [K]
	Block[ 3]            0.00000 [K]
	Block[ 4]            0.00000 [K]
	------------------------------------------------------------------------------
	Average              0.00000 [K] +/-            0.00000 [K]

Adsorbate back-polarization energy:
=======================
	Block[ 0]            0.00000 [K]
	Block[ 1]            0.00000 [K]
	Block[ 2]            0.00000 [K]
	Block[ 3]            0.00000 [K]
	Block[ 4]            0.00000 [K]
	------------------------------------------------------------------------------
	Average              0.00000 [K] +/-            0.00000 [K]

Cation back-polarization energy:
=======================
	Block[ 0]            0.00000 [K]
	Block[ 1]            0.00000 [K]
	Block[ 2]            0.00000 [K]
	Block[ 3]            0.00000 [K]
	Block[ 4]            0.00000 [K]
	------------------------------------------------------------------------------
	Average              0.00000 [K] +/-            0.00000 [K]

Tail-correction energy:
=======================
	Block[ 0]            0.00000 [K]
	Block[ 1]            0.00000 [K]
	Block[ 2]            0.00000 [K]
	Block[ 3]            0.00000 [K]
	Block[ 4]            0.00000 [K]
	------------------------------------------------------------------------------
	Average              0.00000 [K] +/-            0.00000 [K]

Distance-constraints energy:
=======================
	Block[ 0]            0.00000 [K]
	Block[ 1]            0.00000 [K]
	Block[ 2]            0.00000 [K]
	Block[ 3]            0.00000 [K]
	Block[ 4]            0.00000 [K]
	------------------------------------------------------------------------------
	Average              0.00000 [K] +/-            0.00000 [K]

Angle-constraints energy:
=======================
	Block[ 0]            0.00000 [K]
	Block[ 1]            0.00000 [K]
	Block[ 2]            0.00000 [K]
	Block[ 3]            0.00000 [K]
	Block[ 4]            0.00000 [K]
	------------------------------------------------------------------------------
	Average              0.00000 [K] +/-            0.00000 [K]

Dihedral-constraints energy:
=======================
	Block[ 0]            0.00000 [K]
	Block[ 1]            0.00000 [K]
	Block[ 2]            0.00000 [K]
	Block[ 3]            0.00000 [K]
	Block[ 4]            0.00000 [K]
	------------------------------------------------------------------------------
	Average              0.00000 [K] +/-            0.00000 [K]

Inversion-bend constraints energy:
=======================
	Block[ 0]            0.00000 [K]
	Block[ 1]            0.00000 [K]
	Block[ 2]            0.00000 [K]
	Block[ 3]            0.00000 [K]
	Block[ 4]            0.00000 [K]
	------------------------------------------------------------------------------
	Average              0.00000 [K] +/-            0.00000 [K]

Out-of-plane-distance constraints energy:
=======================
	Block[ 0]            0.00000 [K]
	Block[ 1]            0.00000 [K]
	Block[ 2]            0.00000 [K]
	Block[ 3]            0.00000 [K]
	Block[ 4]            0.00000 [K]
	------------------------------------------------------------------------------
	Average              0.00000 [K] +/-            0.00000 [K]

Exclusion-constraints energy:
=======================
	Block[ 0]            0.00000 [K]
	Block[ 1]            0.00000 [K]
	Block[ 2]            0.00000 [K]
	Block[ 3]            0.00000 [K]
	Block[ 4]            0.00000 [K]
	------------------------------------------------------------------------------
	Average              0.00000 [K] +/-            0.00000 [K]

Total energy:
=============
	Block[ 0]            0.00000 [K]
	Block[ 1]            0.00000 [K]
	Block[ 2]            0.00000 [K]
	Block[ 3]            0.00000 [K]
	Block[ 4]            0.00000 [K]
	------------------------------------------------------------------------------
	Average              0.00000 [K] +/-            0.00000 [K]

Number of molecules:
====================

Component 0 [atom1]
-------------------------------------------------------------
	Block[ 0] 0.00000            [-]
	Block[ 1] 0.00000            [-]
	Block[ 2] 0.00000            [-]
	Block[ 3] 0.00000            [-]
	Block[ 4] 0.00000            [-]
	------------------------------------------------------------------------------
	Average                                      0.0000000000 +/-       0.0000000000 [-]
	Average loading absolute [molecules/unit cell]        0.0000000000 +/-       0.0000000000 [-]
	Average loading absolute [mol/kg framework]                   nan +/-                nan [-]
	Average loading absolute [milligram/gram framework]                   nan +/-                nan [-]
	Average loading absolute [cm^3 (STP)/gr framework]                   nan +/-                nan [-]
	Average loading absolute [cm^3 (STP)/cm^3 framework]          0.0000000000 +/-       0.0000000000 [-]

	Block[ 0] 0.00000            [-]
	Block[ 1] 0.00000            [-]
	Block[ 2] 0.00000            [-]
	Block[ 3] 0.00000            [-]
	Block[ 4] 0.00000            [-]
	------------------------------------------------------------------------------
	Average                                      0.0000000000 +/-       0.0000000000 [-]
	Average loading excess [molecules/unit cell]        0.0000000000 +/-       0.0000000000 [-]
	Average loading excess [mol/kg framework]                   nan +/-                nan [-]
	Average loading excess [milligram/gram framework]                   nan +/-                nan [-]
	Average loading excess [cm^3 (STP)/gr framework]                   nan +/-                nan [-]
	Average loading excess [cm^3 (STP)/cm^3 framework]          0.0000000000 +/-       0.0000000000 [-]

Component 1 [atom2]
-------------------------------------------------------------
	Block[ 0] 0.00000            [-]
	Block[ 1] 0.00000            [-]
	Block[ 2] 0.00000            [-]
	Block[ 3] 0.00000            [-]
	Block[ 4] 0.00000            [-]
	------------------------------------------------------------------------------
	Average                                      0.0000000000 +/-       0.0000000000 [-]
	Average loading absolute [molecules/unit cell]        0.0000000000 +/-       0.0000000000 [-]
	Average loading absolute [mol/kg framework]                   nan +/-                nan [-]
	Average loading absolute [milligram/gram framework]                   nan +/-                nan [-]
	Average loading absolute [cm^3 (STP)/gr framework]                   nan +/-                nan [-]
	Average loading absolute [cm^3 (STP)/cm^3 framework]          0.0000000000 +/-       0.0000000000 [-]

	Block[ 0] 0.00000            [-]
	Block[ 1] 0.00000            [-]
	Block[ 2] 0.00000            [-]
	Block[ 3] 0.00000            [-]
	Block[ 4] 0.00000            [-]
	------------------------------------------------------------------------------
	Average                                      0.0000000000 +/-       0.0000000000 [-]
	Average loading excess [molecules/unit cell]        0.0000000000 +/-       0.0000000000 [-]
	Average loading excess [mol/kg framework]                   nan +/-                nan [-]
	Average loading excess [milligram/gram framework]                   nan +/-                nan [-]
	Average loading excess [cm^3 (STP)/gr framework]                   nan +/-                nan [-]
	Average loading excess [cm^3 (STP)/cm^3 framework]          0.0000000000 +/-       0.0000000000 [-]

Component 2 [atom3]
-------------------------------------------------------------
	Block[ 0] 0.00000            [-]
	Block[ 1] 0.00000            [-]
	Block[ 2] 0.00000            [-]
	Block[ 3] 0.00000            [-]
	Block[ 4] 0.00000            [-]
	------------------------------------------------------------------------------
	Average                                      0.0000000000 +/-       0.0000000000 [-]
	Average loading absolute [molecules/unit cell]        0.0000000000 +/-       0.0000000000 [-]
	Average loading absolute [mol/kg framework]                   nan +/-                nan [-]
	Average loading absolute [milligram/gram framework]                   nan +/-                nan [-]
	Average loading absolute [cm^3 (STP)/gr framework]                   nan +/-                nan [-]
	Average loading absolute [cm^3 (STP)/cm^3 framework]          0.0000000000 +/-       0.0000000000 [-]

	Block[ 0] 0.00000            [-]
	Block[ 1] 0.00000            [-]
	Block[ 2] 0.00000            [-]
	Block[ 3] 0.00000            [-]
	Block[ 4] 0.00000            [-]
	------------------------------------------------------------------------------
	Average                                      0.0000000000 +/-       0.0000000000 [-]
	Average loading excess [molecules/unit cell]        0.0000000000 +/-       0.0000000000 [-]
	Average loading excess [mol/kg framework]                   nan +/-                nan [-]
	Average loading excess [milligram/gram framework]                   nan +/-                nan [-]
	Average loading excess [cm^3 (STP)/gr framework]                   nan +/-                nan [-]
	Average loading excess [cm^3 (STP)/cm^3 framework]          0.0000000000 +/-       0.0000000000 [-]

Component 3 [atom4]
-------------------------------------------------------------
	Block[ 0] 0.00000            [-]
	Block[ 1] 0.00000            [-]
	Block[ 2] 0.00000            [-]
	Block[ 3] 0.00000            [-]
	Block[ 4] 0.00000            [-]
	------------------------------------------------------------------------------
	Average                                      0.0000000000 +/-       0.0000000000 [-]
	Average loading absolute [molecules/unit cell]        0.0000000000 +/-       0.0000000000 [-]
	Average loading absolute [mol/kg framework]                   nan +/-                nan [-]
	Average loading absolute [milligram/gram framework]                   nan +/-                nan [-]
	Average loading absolute [cm^3 (STP)/gr framework]                   nan +/-                nan [-]
	Average loading absolute [cm^3 (STP)/cm^3 framework]          0.0000000000 +/-       0.0000000000 [-]

	Block[ 0] 0.00000            [-]
	Block[ 1] 0.00000            [-]
	Block[ 2] 0.00000            [-]
	Block[ 3] 0.00000            [-]
	Block[ 4] 0.00000            [-]
	------------------------------------------------------------------------------
	Average                                      0.0000000000 +/-       0.0000000000 [-]
	Average loading excess [molecules/unit cell]        0.0000000000 +/-       0.0000000000 [-]
	Average loading excess [mol/kg framework]                   nan +/-                nan [-]
	Average loading excess [milligram/gram framework]                   nan +/-                nan [-]
	Average loading excess [cm^3 (STP)/gr framework]                   nan +/-                nan [-]
	Average loading excess [cm^3 (STP)/cm^3 framework]          0.0000000000 +/-       0.0000000000 [-]


Average Widom Rosenbluth factor:
================================
	Block[ 0] 0 [-]
	Block[ 1] 0 [-]
	Block[ 2] 0 [-]
	Block[ 3] 0 [-]
	Block[ 4] 0 [-]
	------------------------------------------------------------------------------
	[atom1] Average Widom:   0 +/- 0.000000 [-]
	Block[ 0] 0 [-]
	Block[ 1] 0 [-]
	Block[ 2] 0 [-]
	Block[ 3] 0 [-]
	Block[ 4] 0 [-]
	------------------------------------------------------------------------------
	[atom2] Average Widom:   0 +/- 0.000000 [-]
	Block[ 0] 0 [-]
	Block[ 1] 0 [-]
	Block[ 2] 0 [-]
	Block[ 3] 0 [-]
	Block[ 4] 0 [-]
	------------------------------------------------------------------------------
	[atom3] Average Widom:   0 +/- 0.000000 [-]
	Block[ 0] 0 [-]
	Block[ 1] 0 [-]
	Block[ 2] 0 [-]
	Block[ 3] 0 [-]
	Block[ 4] 0 [-]
	------------------------------------------------------------------------------
	[atom4] Average Widom:   0 +/- 0.000000 [-]

Average Henry coefficient:
==========================
	Block[ 0] 0 [mol/kg/Pa]
	Block[ 1] 0 [mol/kg/Pa]
	Block[ 2] 0 [mol/kg/Pa]
	Block[ 3] 0 [mol/kg/Pa]
	Block[ 4] 0 [mol/kg/Pa]
	------------------------------------------------------------------------------
	[atom1] Average Henry coefficient:  0 +/- 0 [mol/kg/Pa]
	Block[ 0] 0 [mol/kg/Pa]
	Block[ 1] 0 [mol/kg/Pa]
	Block[ 2] 0 [mol/kg/Pa]
	Block[ 3] 0 [mol/kg/Pa]
	Block[ 4] 0 [mol/kg/Pa]
	------------------------------------------------------------------------------
	[atom2] Average Henry coefficient:  0 +/- 0 [mol/kg/Pa]
	Block[ 0] 0 [mol/kg/Pa]
	Block[ 1] 0 [mol/kg/Pa]
	Block[ 2] 0 [mol/kg/Pa]
	Block[ 3] 0 [mol/kg/Pa]
	Block[ 4] 0 [mol/kg/Pa]
	------------------------------------------------------------------------------
	[atom3] Average Henry coefficient:  0 +/- 0 [mol/kg/Pa]
	Block[ 0] 0 [mol/kg/Pa]
	Block[ 1] 0 [mol/kg/Pa]
	Block[ 2] 0 [mol/kg/Pa]
	Block[ 3] 0 [mol/kg/Pa]
	Block[ 4] 0 [mol/kg/Pa]
	------------------------------------------------------------------------------
	[atom4] Average Henry coefficient:  0 +/- 0 [mol/kg/Pa]

Average adsorption energy <U_gh>_1-<U_h>_0 obtained from Widom-insertion:
(Note: the total heat of adsorption is dH=<U_gh>_1-<U_h>_0 - <U_g> - RT)
=========================================================================

Simulation finished,  1 warnings
