Compiler and run-time data
===========================================================================
RASPA 0.99-22
Compiled as a 64-bits application
Compiler: gcc 3.4.6 20060404 (Red Hat 3.4.6-3)
Compile Date = Jan 23 2009, Compile Time = 07:18:56

Fri Jan 23 18:12:43 2009
Simulation started on Friday, January 23.
The start time was 06:12 PM.

Hostname:    compute-0-19.local
OS type:     Linux
OS release:  2.6.9
OS version:  #1 SM

Simulation
===========================================================================
Random number seed: 1232755963
RASPA directory set to: /home/dubbelda/RASPA/simulations/
Number of cycles: 50000
Number of initializing cycles: 10000
Number of equilibration cycles: 0
Print every: 5000

Mutual consistent basic set of units:
======================================
Unit of temperature: Kelvin
Unit of length:      1e-10 [m]
Unit of time:        1e-12 [s]
Unit of mass:        1.66054e-27 [kg]
Unit of charge:      1.60218e-19 [C/particle]

Derived units and their conversion factors:
===========================================
Unit of energy:              1.66054e-23 [J]
Unit of force:               1.66054e-13 [N]
Unit of pressure:            1.66054e+07 [Pa]
Unit of velocity:            100 [m/s]
Unit of acceleration:        1e-08 [m^2/s]
Unit of diffusion:           1e-08 [m^2/s]
Unit of dipole moment:       1.60218e-29 [C.m]
Unit of electric potential:  0.000103643 [V]
Unit of electric field:      1.03643e+06 [V]
Unit of polarizability:      1.54587e-35 [-]
Unit of Coulomb potential:   138935.4834964017 
Unit of dielectric constant: 0.0000154587       [s^2 C^2/(kg m^3)]
Unit of wave vectors:        5.3088374589       [cm^1]
Boltzmann constant:          0.8314464919       [-]

Internal conversion factors:
===========================================
Energy to Kelvin:                              1.20272
Heat capacity conversion factor:               10
From Debye to internal units:                  4.80321
Isothermal compressibility conversion factor:  6.02214e-08

Energy conversion factors:
===========================================
From mdyne/A to kcal/mol/A^2:           143.933
From mdyne/A to kj/mol/A^2:             602.214
From mdyne/A to K/A^2:                  72429.7
From mdyne A/rad^2 to kcal/mol/deg^2:   0.0438444


Timestep: 0.000500
Ensemble: NVE (constant number of particles N, constant volume V, constant energy E)
	Degrees of freedom:                        1272
	Translational Degrees of freedom:          1272
	Rotational Degrees of freedom:             0
	Degrees of freedom Framework:              1272


Properties computed
===========================================================================
Movies: no
Radial Distribution Function: no
Mean-squared displacement using modified order-N algorithm: no
Velocity-autocorrelation function modified order-N algorithm: no
Mean-squared displacement (conventional algorithm): no
Velocity-autocorrelation function (conventional algorithm): no
Infra-red spectra: no
End-to-end distance: no
Number of molecules GCMC histogram: no
Molecule properties: no
Histogram of the molecule positions: no
Free energy profiles: no
dcTST snapshots: no
Framework spacing histograms: no
3D density grid for adsorbates: no
Compute cation an/or adsorption sites: no


Thermo/Baro-stat NHC parameters
===========================================================================
External temperature: 298.000000 [K]
Beta: 0.004036 [energy unit]
External Pressure: 100000.000000 [Pa]


Thermostat chain-length: 3
Timescale parameter for thermostat: 0.150000 [ps]
Barostat chain-length:   3
Timescale parameter for barostat:   0.150000 [ps]

Number of Yoshida-Suzuki decomposition steps: 5
Number of respa steps: 5


Method and settings for electrostatics
===============================================================================
Dielectric constant of the medium : 1.000000
Ewald summation is used (exact solution of a periodic system)
Relative precision                : 1e-06
Alpha convergence parameter       : 0.265058
kvec (x,y,z)                      : 7 7 7


Minimization parameters
===========================================================================
Potential derivatives are evaluated: analytically
Maximum number of minimization steps: 1000
Use gradients in the line-minimizations: yes
RMS gradient tolerance: 1e-05
Maximum gradient tolerance: 1e-05


dcTST parameters
===========================================================================
Free energy profiles computed: no
Free energy profiles written every 5000 cycles
Free energy mapping: mapped to x-coordinate
BarrierPosition:       0.0000000000       0.0000000000       0.0000000000
BarrierNormal:         0.0000000000       0.0000000000       0.0000000000
Start with a molecule on top of the barrier: no
Maximum distance to barrier (e.g. distance to minumum free energy):       0.0000000000 [A]
Maximum trajectory time:      10.0000000000 [ps]
Each configuration is used with 5 different initial velocities


Cbmc parameters
===========================================================================
Biasing method: using only the VDW part
Number of trial positions:                             10
Number of trial positions coupled Torsion-selection:   100
Number of trial position for the first bead:           10
Number of trial moves per open bead:                   150
Target acceptance ratio small-mc scheme:               0.400000
Energy overlap criteria:                               100000
Minimal Rosenbluth factor:                             1e-150


Pseudo atoms: 38
===========================================================================
Pseudo Atom[   0] Name UNIT     Chemical element: H        Scat. Types:   1   1 Mass=1.000    B-factor:1.000   
                  Charge=1.000     Polarization=0.000    (considered a charged atom and unpolarizable)  Interactions:  no
Pseudo Atom[   1] Name He       Chemical element: He       Scat. Types:   3   2 Mass=4.003    B-factor:1.000   
                  Charge=0.000     Polarization=0.000    (considered  a united atom and unpolarizable)  Interactions: yes
Pseudo Atom[   2] Name Mof_Zn   Chemical element: Zn       Scat. Types:  31  30 Mass=65.370   B-factor:1.000   
                  Charge=1.275     Polarization=0.000    (considered a charged atom and unpolarizable)  Interactions: yes
Pseudo Atom[   3] Name Mof_Oa   Chemical element: O        Scat. Types:   9   8 Mass=15.999   B-factor:1.000   
                  Charge=-1.500    Polarization=0.000    (considered a charged atom and unpolarizable)  Interactions: yes
Pseudo Atom[   4] Name Mof_Ob   Chemical element: O        Scat. Types:   9   8 Mass=15.999   B-factor:1.000   
                  Charge=-0.600    Polarization=0.000    (considered a charged atom and unpolarizable)  Interactions: yes
Pseudo Atom[   5] Name Mof_Ca   Chemical element: C        Scat. Types:   7   6 Mass=12.011   B-factor:1.000   
                  Charge=0.475     Polarization=0.000    (considered a charged atom and unpolarizable)  Interactions: yes
Pseudo Atom[   6] Name Mof_Cb   Chemical element: C        Scat. Types:   7   6 Mass=12.011   B-factor:1.000   
                  Charge=0.125     Polarization=0.000    (considered a charged atom and unpolarizable)  Interactions: yes
Pseudo Atom[   7] Name Mof_Cc   Chemical element: C        Scat. Types:   7   6 Mass=12.011   B-factor:1.000   
                  Charge=-0.150    Polarization=0.000    (considered a charged atom and unpolarizable)  Interactions: yes
Pseudo Atom[   8] Name Mof_H    Chemical element: H        Scat. Types:   1   1 Mass=1.008    B-factor:1.000   
                  Charge=0.150     Polarization=0.000    (considered a charged atom and unpolarizable)  Interactions: yes
Pseudo Atom[   9] Name Mof_Ar   Chemical element: Ar       Scat. Types:  19  18 Mass=39.948   B-factor:1.000   
                  Charge=0.000     Polarization=0.000    (considered  a united atom and unpolarizable)  Interactions:  no
Pseudo Atom[  10] Name CH4_sp3  Chemical element: C        Scat. Types:   7   6 Mass=16.042   B-factor:1.000   
                  Charge=0.000     Polarization=0.000    (considered  a united atom and unpolarizable)  Interactions: yes
Pseudo Atom[  11] Name CH3_sp3  Chemical element: C        Scat. Types:   7   6 Mass=15.035   B-factor:1.000   
                  Charge=0.000     Polarization=0.000    (considered  a united atom and unpolarizable)  Interactions: yes
Pseudo Atom[  12] Name CH2_sp3  Chemical element: C        Scat. Types:   7   6 Mass=14.027   B-factor:1.000   
                  Charge=0.000     Polarization=0.000    (considered  a united atom and unpolarizable)  Interactions: yes
Pseudo Atom[  13] Name CH_sp3   Chemical element: C        Scat. Types:   7   6 Mass=13.019   B-factor:1.000   
                  Charge=0.000     Polarization=0.000    (considered  a united atom and unpolarizable)  Interactions: yes
Pseudo Atom[  14] Name C_sp3    Chemical element: C        Scat. Types:   7   6 Mass=12.000   B-factor:1.000   
                  Charge=0.000     Polarization=0.000    (considered  a united atom and unpolarizable)  Interactions: yes
Pseudo Atom[  15] Name H_h2     Chemical element: H        Scat. Types:   1   1 Mass=1.008    B-factor:1.000   
                  Charge=0.468     Polarization=0.000    (considered a charged atom and unpolarizable)  Interactions:  no
Pseudo Atom[  16] Name H_com    Chemical element: H        Scat. Types:   1   1 Mass=0.000    B-factor:1.000   
                  Charge=-0.936    Polarization=0.000    (considered a charged atom and unpolarizable)  Interactions: yes
Pseudo Atom[  17] Name C_co2    Chemical element: C        Scat. Types:   7   6 Mass=12.000   B-factor:1.000   
                  Charge=0.700     Polarization=0.000    (considered a charged atom and unpolarizable)  Interactions: yes
Pseudo Atom[  18] Name O_co2    Chemical element: O        Scat. Types:   9   8 Mass=15.999   B-factor:1.000   
                  Charge=-0.350    Polarization=0.000    (considered a charged atom and unpolarizable)  Interactions: yes
Pseudo Atom[  19] Name N_n2     Chemical element: N        Scat. Types:   8   7 Mass=14.007   B-factor:1.000   
                  Charge=-0.482    Polarization=0.000    (considered a charged atom and unpolarizable)  Interactions: yes
Pseudo Atom[  20] Name N_com    Chemical element: N        Scat. Types:   8   7 Mass=0.000    B-factor:1.000   
                  Charge=0.964     Polarization=0.000    (considered a charged atom and unpolarizable)  Interactions:  no
Pseudo Atom[  21] Name Ar       Chemical element: Ar       Scat. Types:  19  18 Mass=39.948   B-factor:1.000   
                  Charge=0.000     Polarization=0.000    (considered  a united atom and unpolarizable)  Interactions: yes
Pseudo Atom[  22] Name Ow       Chemical element: O        Scat. Types:   9   8 Mass=15.999   B-factor:1.000   
                  Charge=0.000     Polarization=0.000    (considered  a united atom and unpolarizable)  Interactions: yes
Pseudo Atom[  23] Name Hw       Chemical element: H        Scat. Types:   1   1 Mass=1.008    B-factor:1.000   
                  Charge=0.241     Polarization=0.000    (considered a charged atom and unpolarizable)  Interactions:  no
Pseudo Atom[  24] Name Hw       Chemical element: H        Scat. Types:   1   1 Mass=1.008    B-factor:1.000   
                  Charge=0.241     Polarization=0.000    (considered a charged atom and unpolarizable)  Interactions:  no
Pseudo Atom[  25] Name Lw       Chemical element: H        Scat. Types:   1   1 Mass=0.000    B-factor:1.000   
                  Charge=-0.241    Polarization=0.000    (considered a charged atom and unpolarizable)  Interactions:  no
Pseudo Atom[  26] Name Lw       Chemical element: H        Scat. Types:   1   1 Mass=0.000    B-factor:1.000   
                  Charge=-0.241    Polarization=0.000    (considered a charged atom and unpolarizable)  Interactions:  no
Pseudo Atom[  27] Name C_benz   Chemical element: C        Scat. Types:   7   6 Mass=12.000   B-factor:1.000   
                  Charge=-0.095    Polarization=0.000    (considered a charged atom and unpolarizable)  Interactions: yes
Pseudo Atom[  28] Name H_benz   Chemical element: H        Scat. Types:   1   1 Mass=1.008    B-factor:1.000   
                  Charge=0.095     Polarization=0.000    (considered a charged atom and unpolarizable)  Interactions: yes
Pseudo Atom[  29] Name N_dmf    Chemical element: N        Scat. Types:   8   7 Mass=14.007   B-factor:1.000   
                  Charge=-0.570    Polarization=0.000    (considered a charged atom and unpolarizable)  Interactions: yes
Pseudo Atom[  30] Name Co_dmf   Chemical element: C        Scat. Types:   7   6 Mass=12.000   B-factor:1.000   
                  Charge=0.450     Polarization=0.000    (considered a charged atom and unpolarizable)  Interactions: yes
Pseudo Atom[  31] Name Cm_dmf   Chemical element: C        Scat. Types:   7   6 Mass=12.000   B-factor:1.000   
                  Charge=0.280     Polarization=0.000    (considered a charged atom and unpolarizable)  Interactions: yes
Pseudo Atom[  32] Name O_dmf    Chemical element: O        Scat. Types:   9   8 Mass=15.999   B-factor:1.000   
                  Charge=-0.500    Polarization=0.000    (considered a charged atom and unpolarizable)  Interactions: yes
Pseudo Atom[  33] Name H_dmf    Chemical element: H        Scat. Types:   1   1 Mass=1.008    B-factor:1.000   
                  Charge=0.060     Polarization=0.000    (considered a charged atom and unpolarizable)  Interactions: yes
Pseudo Atom[  34] Name Na       Chemical element: Na       Scat. Types:  12  11 Mass=22.990   B-factor:1.000   
                  Charge=1.000     Polarization=0.000    (considered a charged atom and unpolarizable)  Interactions:  no
Pseudo Atom[  35] Name Cl       Chemical element: Cl       Scat. Types:  18  17 Mass=22.990   B-factor:1.000   
                  Charge=-1.000    Polarization=0.000    (considered a charged atom and unpolarizable)  Interactions:  no
Pseudo Atom[  36] Name Kr       Chemical element: Kr       Scat. Types:  37  36 Mass=83.798   B-factor:1.000   
                  Charge=0.000     Polarization=0.000    (considered  a united atom and unpolarizable)  Interactions: yes
Pseudo Atom[  37] Name Xe       Chemical element: Xe       Scat. Types:  55  54 Mass=131.293  B-factor:1.000   
                  Charge=0.000     Polarization=0.000    (considered  a united atom and unpolarizable)  Interactions: yes


Forcefield: FlexibleIRMOF-1
===========================================================================
CutOff VDW : 12.000000 (144.000000)
CutOff Coulomb : 12.000000 (144.000000)
Polarization is neglected
All potentials are shifted to zero at the Cutoff

General mixing rule: Lorentz-Berthelot mixing rules are used FIRST for cross terms
3 cross terms are overwritten using the individual mixing rules from the file 'force_field_mixing_rules.def'
and then 0 terms are overwritten using the specific interactions from the file 'force_field.def'

The force field and all the interactions:
      He -       He [lennard-jones] epsilon:  10.90000000 sigma:   2.64000000 shifted:  -0.00494280  tailcorrection: no
      He -   Mof_Zn [lennard-jones] epsilon:   2.13962614 sigma:   2.67000000 shifted:  -0.00103831  tailcorrection: no
      He -   Mof_Oa [lennard-jones] epsilon:  87.34987121 sigma:   2.81000000 shifted:  -0.05759716  tailcorrection: no
      He -   Mof_Ob [lennard-jones] epsilon:  27.72093072 sigma:   2.87500000 shifted:  -0.02096647  tailcorrection: no
      He -   Mof_Ca [lennard-jones] epsilon:  22.63404515 sigma:   3.19000000 shifted:  -0.03193931  tailcorrection: no
      He -   Mof_Cb [lennard-jones] epsilon:  22.84018389 sigma:   3.05500000 shifted:  -0.02486687  tailcorrection: no
      He -   Mof_Cc [lennard-jones] epsilon:  22.84018389 sigma:   3.05500000 shifted:  -0.02486687  tailcorrection: no
      He -    Mof_H [lennard-jones] epsilon:   9.13153875 sigma:   2.74500000 shifted:  -0.00523249  tailcorrection: no
      He -  CH4_sp3 [lennard-jones] epsilon:  41.56500932 sigma:   3.18000000 shifted:  -0.05755893  tailcorrection: no
      He -  CH3_sp3 [lennard-jones] epsilon:  34.31034829 sigma:   3.20000000 shifted:  -0.04933343  tailcorrection: no
      He -  CH2_sp3 [lennard-jones] epsilon:  24.70627451 sigma:   3.30000000 shifted:  -0.04272436  tailcorrection: no
      He -   CH_sp3 [lennard-jones] epsilon:  13.61249426 sigma:   3.65500000 shifted:  -0.04343978  tailcorrection: no
      He -    C_sp3 [lennard-jones] epsilon:   2.95296461 sigma:   4.51000000 shifted:  -0.03319436  tailcorrection: no
      He -    H_com [lennard-jones] epsilon:  20.00074999 sigma:   2.79900000 shifted:  -0.01288149  tailcorrection: no
      He -    C_co2 [lennard-jones] epsilon:  17.15517415 sigma:   2.72000000 shifted:  -0.00930512  tailcorrection: no
      He -    O_co2 [lennard-jones] epsilon:  29.34450545 sigma:   2.84500000 shifted:  -0.02084087  tailcorrection: no
      He -     N_n2 [lennard-jones] epsilon:  19.80908882 sigma:   2.97500000 shifted:  -0.01839323  tailcorrection: no
      He -       Ar [lennard-jones] epsilon:  36.13613150 sigma:   2.99000000 shifted:  -0.03458099  tailcorrection: no
      He -       Ow [lennard-jones] epsilon:  31.25699442 sigma:   2.86850000 shifted:  -0.02332211  tailcorrection: no
      He -   C_benz [lennard-jones] epsilon:  18.29289480 sigma:   3.12000000 shifted:  -0.02259687  tailcorrection: no
      He -   H_benz [lennard-jones] epsilon:  16.65547958 sigma:   2.50000000 shifted:  -0.00544671  tailcorrection: no
      He -    N_dmf [lennard-jones] epsilon:  29.52964612 sigma:   2.92000000 shifted:  -0.02451533  tailcorrection: no
      He -   Co_dmf [lennard-jones] epsilon:  23.34523506 sigma:   3.17000000 shifted:  -0.03172333  tailcorrection: no
      He -   Cm_dmf [lennard-jones] epsilon:  29.52964612 sigma:   3.22000000 shifted:  -0.04407617  tailcorrection: no
      He -    O_dmf [lennard-jones] epsilon:  33.01514804 sigma:   2.80000000 shifted:  -0.02130904  tailcorrection: no
      He -    H_dmf [lennard-jones] epsilon:   9.33809402 sigma:   2.42000000 shifted:  -0.00251243  tailcorrection: no
      He -       Kr [lennard-jones] epsilon:  42.58826129 sigma:   3.13800000 shifted:  -0.05445543  tailcorrection: no
      He -       Xe [lennard-jones] epsilon:  49.08054604 sigma:   3.37000000 shifted:  -0.09626052  tailcorrection: no
  Mof_Zn -   Mof_Zn [lennard-jones] epsilon:   0.42000000 sigma:   2.70000000 shifted:  -0.00021795  tailcorrection: no
  Mof_Zn -   Mof_Oa [lennard-jones] epsilon:  17.14642820 sigma:   2.84000000 shifted:  -0.01204980  tailcorrection: no
  Mof_Zn -   Mof_Ob [lennard-jones] epsilon:   5.44150714 sigma:   2.90500000 shifted:  -0.00438007  tailcorrection: no
  Mof_Zn -   Mof_Ca [lennard-jones] epsilon:   4.44297198 sigma:   3.22000000 shifted:  -0.00663161  tailcorrection: no
  Mof_Zn -   Mof_Cb [lennard-jones] epsilon:   4.48343618 sigma:   3.08500000 shifted:  -0.00517594  tailcorrection: no
  Mof_Zn -   Mof_Cc [lennard-jones] epsilon:   4.48343618 sigma:   3.08500000 shifted:  -0.00517594  tailcorrection: no
  Mof_Zn -    Mof_H [lennard-jones] epsilon:   1.79248431 sigma:   2.77500000 shifted:  -0.00109633  tailcorrection: no
  Mof_Zn -  CH4_sp3 [lennard-jones] epsilon:   8.15904406 sigma:   3.21000000 shifted:  -0.01195316  tailcorrection: no
  Mof_Zn -  CH3_sp3 [lennard-jones] epsilon:   6.73498330 sigma:   3.23000000 shifted:  -0.01024139  tailcorrection: no
  Mof_Zn -  CH2_sp3 [lennard-jones] epsilon:   4.84974226 sigma:   3.33000000 shifted:  -0.00885438  tailcorrection: no
  Mof_Zn -   CH_sp3 [lennard-jones] epsilon:   2.67207784 sigma:   3.68500000 shifted:  -0.00895534  tailcorrection: no
  Mof_Zn -    C_sp3 [lennard-jones] epsilon:   0.57965507 sigma:   4.54000000 shifted:  -0.00677956  tailcorrection: no
  Mof_Zn -    H_com [lennard-jones] epsilon:   3.92606673 sigma:   2.82900000 shifted:  -0.00269559  tailcorrection: no
  Mof_Zn -    C_co2 [lennard-jones] epsilon:   3.36749165 sigma:   2.75000000 shifted:  -0.00195080  tailcorrection: no
  Mof_Zn -    O_co2 [lennard-jones] epsilon:   5.76020833 sigma:   2.87500000 shifted:  -0.00435668  tailcorrection: no
  Mof_Zn -     N_n2 [lennard-jones] epsilon:   3.88844442 sigma:   3.00500000 shifted:  -0.00383449  tailcorrection: no
  Mof_Zn -       Ar [lennard-jones] epsilon:   7.09337719 sigma:   3.02000000 shifted:  -0.00720704  tailcorrection: no
  Mof_Zn -       Ow [lennard-jones] epsilon:   6.13562222 sigma:   2.89850000 shifted:  -0.00487287  tailcorrection: no
  Mof_Zn -   C_benz [lennard-jones] epsilon:   3.59082163 sigma:   3.15000000 shifted:  -0.00469772  tailcorrection: no
  Mof_Zn -   H_benz [lennard-jones] epsilon:   3.26940362 sigma:   2.53000000 shifted:  -0.00114849  tailcorrection: no
  Mof_Zn -    N_dmf [lennard-jones] epsilon:   5.79655070 sigma:   2.95000000 shifted:  -0.00511656  tailcorrection: no
  Mof_Zn -   Co_dmf [lennard-jones] epsilon:   4.58257569 sigma:   3.20000000 shifted:  -0.00658910  tailcorrection: no
  Mof_Zn -   Cm_dmf [lennard-jones] epsilon:   5.79655070 sigma:   3.25000000 shifted:  -0.00914684  tailcorrection: no
  Mof_Zn -    O_dmf [lennard-jones] epsilon:   6.48074070 sigma:   2.83000000 shifted:  -0.00445904  tailcorrection: no
  Mof_Zn -    H_dmf [lennard-jones] epsilon:   1.83303028 sigma:   2.45000000 shifted:  -0.00053102  tailcorrection: no
  Mof_Zn -       Kr [lennard-jones] epsilon:   8.35990431 sigma:   3.16800000 shifted:  -0.01131717  tailcorrection: no
  Mof_Zn -       Xe [lennard-jones] epsilon:   9.63431368 sigma:   3.40000000 shifted:  -0.01992701  tailcorrection: no
  Mof_Oa -   Mof_Oa [lennard-jones] epsilon: 700.00000000 sigma:   2.98000000 shifted:  -0.65654768  tailcorrection: no
  Mof_Oa -   Mof_Ob [lennard-jones] epsilon: 222.14859892 sigma:   3.04500000 shifted:  -0.23715043  tailcorrection: no
  Mof_Oa -   Mof_Ca [lennard-jones] epsilon: 181.38357147 sigma:   3.36000000 shifted:  -0.34945946  tailcorrection: no
  Mof_Oa -   Mof_Cb [lennard-jones] epsilon: 183.03551568 sigma:   3.22500000 shifted:  -0.27575445  tailcorrection: no
  Mof_Oa -   Mof_Cc [lennard-jones] epsilon: 183.03551568 sigma:   3.22500000 shifted:  -0.27575445  tailcorrection: no
  Mof_Oa -    Mof_H [lennard-jones] epsilon:  73.17786551 sigma:   2.91500000 shifted:  -0.06013044  tailcorrection: no
  Mof_Oa -  CH4_sp3 [lennard-jones] epsilon: 333.09157900 sigma:   3.35000000 shifted:  -0.63037559  tailcorrection: no
  Mof_Oa -  CH3_sp3 [lennard-jones] epsilon: 274.95454170 sigma:   3.37000000 shifted:  -0.53926188  tailcorrection: no
  Mof_Oa -  CH2_sp3 [lennard-jones] epsilon: 197.98989873 sigma:   3.47000000 shifted:  -0.46274146  tailcorrection: no
  Mof_Oa -   CH_sp3 [lennard-jones] epsilon: 109.08712115 sigma:   3.82500000 shifted:  -0.45717123  tailcorrection: no
  Mof_Oa -    C_sp3 [lennard-jones] epsilon:  23.66431913 sigma:   4.68000000 shifted:  -0.33190270  tailcorrection: no
  Mof_Oa -    H_com [lennard-jones] epsilon: 160.28100324 sigma:   2.96900000 shifted:  -0.14703344  tailcorrection: no
  Mof_Oa -    C_co2 [lennard-jones] epsilon: 137.47727085 sigma:   2.89000000 shifted:  -0.10727678  tailcorrection: no
  Mof_Oa -    O_co2 [lennard-jones] epsilon: 235.15952033 sigma:   3.01500000 shifted:  -0.23656458  tailcorrection: no
  Mof_Oa -     N_n2 [lennard-jones] epsilon: 158.74507866 sigma:   3.14500000 shifted:  -0.20571024  tailcorrection: no
  Mof_Oa -       Ar [lennard-jones] epsilon: 289.58591126 sigma:   3.16000000 shifted:  -0.38612471  tailcorrection: no
  Mof_Oa -       Ow [lennard-jones] epsilon: 250.48572814 sigma:   3.03850000 shifted:  -0.26399547  tailcorrection: no
  Mof_Oa -   C_benz [lennard-jones] epsilon: 146.59467930 sigma:   3.29000000 shifted:  -0.24893251  tailcorrection: no
  Mof_Oa -   H_benz [lennard-jones] epsilon: 133.47284368 sigma:   2.67000000 shifted:  -0.06477095  tailcorrection: no
  Mof_Oa -    N_dmf [lennard-jones] epsilon: 236.64319132 sigma:   3.09000000 shifted:  -0.27586130  tailcorrection: no
  Mof_Oa -   Co_dmf [lennard-jones] epsilon: 187.08286934 sigma:   3.34000000 shifted:  -0.34776300  tailcorrection: no
  Mof_Oa -   Cm_dmf [lennard-jones] epsilon: 236.64319132 sigma:   3.39000000 shifted:  -0.48088797  tailcorrection: no
  Mof_Oa -    O_dmf [lennard-jones] epsilon: 264.57513111 sigma:   2.97000000 shifted:  -0.24319822  tailcorrection: no
  Mof_Oa -    H_dmf [lennard-jones] epsilon:  74.83314774 sigma:   2.59000000 shifted:  -0.03025668  tailcorrection: no
  Mof_Oa -       Kr [lennard-jones] epsilon: 341.29166412 sigma:   3.30800000 shifted:  -0.59882590  tailcorrection: no
  Mof_Oa -       Xe [lennard-jones] epsilon: 393.31920879 sigma:   3.54000000 shifted:  -1.03621749  tailcorrection: no
  Mof_Ob -   Mof_Ob [lennard-jones] epsilon:  70.50000000 sigma:   3.11000000 shifted:  -0.08542645  tailcorrection: no
  Mof_Ob -   Mof_Ca [lennard-jones] epsilon:  57.56300896 sigma:   3.42500000 shifted:  -0.12440694  tailcorrection: no
  Mof_Ob -   Mof_Cb [lennard-jones] epsilon:  58.08726194 sigma:   3.29000000 shifted:  -0.09863801  tailcorrection: no
  Mof_Ob -   Mof_Cc [lennard-jones] epsilon:  58.08726194 sigma:   3.29000000 shifted:  -0.09863801  tailcorrection: no
  Mof_Ob -    Mof_H [lennard-jones] epsilon:  23.22337185 sigma:   2.98000000 shifted:  -0.02178179  tailcorrection: no
  Mof_Ob -  CH4_sp3 [lennard-jones] epsilon: 105.70832512 sigma:   3.41500000 shifted:  -0.22448907  tailcorrection: no
  Mof_Ob -  CH3_sp3 [lennard-jones] epsilon:  87.25823743 sigma:   3.43500000 shifted:  -0.19191124  tailcorrection: no
  Mof_Ob -  CH2_sp3 [lennard-jones] epsilon:  62.83311229 sigma:   3.53500000 shifted:  -0.16413972  tailcorrection: no
  Mof_Ob -   CH_sp3 [lennard-jones] epsilon:  34.61935875 sigma:   3.89000000 shifted:  -0.16050364  tailcorrection: no
  Mof_Ob -    C_sp3 [lennard-jones] epsilon:   7.50999334 sigma:   4.74500000 shifted:  -0.11438423  tailcorrection: no
  Mof_Ob -    H_com [lennard-jones] epsilon:  50.86600043 sigma:   3.03400000 shifted:  -0.05313493  tailcorrection: no
  Mof_Ob -    C_co2 [lennard-jones] epsilon:  43.62911872 sigma:   2.95500000 shifted:  -0.03890425  tailcorrection: no
  Mof_Ob -    O_co2 [lennard-jones] epsilon:  74.62908280 sigma:   3.08000000 shifted:  -0.08532194  tailcorrection: no
  Mof_Ob -     N_n2 [lennard-jones] epsilon:  50.37856687 sigma:   3.21000000 shifted:  -0.07380561  tailcorrection: no
  Mof_Ob -       Ar [lennard-jones] epsilon:  91.90157779 sigma:   3.22500000 shifted:  -0.13845547  tailcorrection: no
  Mof_Ob -       Ow [lennard-jones] epsilon:  79.49293365 sigma:   3.10350000 shifted:  -0.09512213  tailcorrection: no
  Mof_Ob -   C_benz [lennard-jones] epsilon:  46.52257517 sigma:   3.35500000 shifted:  -0.08883497  tailcorrection: no
  Mof_Ob -   H_benz [lennard-jones] epsilon:  42.35829317 sigma:   2.73500000 shifted:  -0.02374620  tailcorrection: no
  Mof_Ob -    N_dmf [lennard-jones] epsilon:  75.09993342 sigma:   3.15500000 shifted:  -0.09918929  tailcorrection: no
  Mof_Ob -   Co_dmf [lennard-jones] epsilon:  59.37171044 sigma:   3.40500000 shifted:  -0.12388766  tailcorrection: no
  Mof_Ob -   Cm_dmf [lennard-jones] epsilon:  75.09993342 sigma:   3.45500000 shifted:  -0.17102237  tailcorrection: no
  Mof_Ob -    O_dmf [lennard-jones] epsilon:  83.96427812 sigma:   3.03500000 shifted:  -0.08788314  tailcorrection: no
  Mof_Ob -    H_dmf [lennard-jones] epsilon:  23.74868417 sigma:   2.65500000 shifted:  -0.01114162  tailcorrection: no
  Mof_Ob -       Kr [lennard-jones] epsilon: 108.31066429 sigma:   3.37300000 shifted:  -0.21356375  tailcorrection: no
  Mof_Ob -       Xe [lennard-jones] epsilon: 124.82187308 sigma:   3.60500000 shifted:  -0.36675451  tailcorrection: no
  Mof_Ca -   Mof_Ca [lennard-jones] epsilon:  47.00000000 sigma:   3.74000000 shifted:  -0.17214791  tailcorrection: no
  Mof_Ca -   Mof_Cb [lennard-jones] epsilon:  47.42805077 sigma:   3.60500000 shifted:  -0.13935419  tailcorrection: no
  Mof_Ca -   Mof_Cc [lennard-jones] epsilon:  47.42805077 sigma:   3.60500000 shifted:  -0.13935419  tailcorrection: no
  Mof_Ca -    Mof_H [lennard-jones] epsilon:  18.96180371 sigma:   3.29500000 shifted:  -0.03249365  tailcorrection: no
  Mof_Ca -  CH4_sp3 [lennard-jones] epsilon:  86.31048604 sigma:   3.73000000 shifted:  -0.31109798  tailcorrection: no
  Mof_Ca -  CH3_sp3 [lennard-jones] epsilon:  71.24605252 sigma:   3.75000000 shifted:  -0.26516504  tailcorrection: no
  Mof_Ca -  CH2_sp3 [lennard-jones] epsilon:  51.30302135 sigma:   3.85000000 shifted:  -0.22356609  tailcorrection: no
  Mof_Ca -   CH_sp3 [lennard-jones] epsilon:  28.26658805 sigma:   4.20500000 shifted:  -0.20894746  tailcorrection: no
  Mof_Ca -    C_sp3 [lennard-jones] epsilon:   6.13188389 sigma:   5.06000000 shifted:  -0.13709495  tailcorrection: no
  Mof_Ca -    H_com [lennard-jones] epsilon:  41.53191544 sigma:   3.34900000 shifted:  -0.07845852  tailcorrection: no
  Mof_Ca -    C_co2 [lennard-jones] epsilon:  35.62302626 sigma:   3.27000000 shifted:  -0.05831926  tailcorrection: no
  Mof_Ca -    O_co2 [lennard-jones] epsilon:  60.93439095 sigma:   3.39500000 shifted:  -0.12492544  tailcorrection: no
  Mof_Ca -     N_n2 [lennard-jones] epsilon:  41.13392760 sigma:   3.52500000 shifted:  -0.10564484  tailcorrection: no
  Mof_Ca -       Ar [lennard-jones] epsilon:  75.03732405 sigma:   3.54000000 shifted:  -0.19768927  tailcorrection: no
  Mof_Ca -       Ow [lennard-jones] epsilon:  64.90570853 sigma:   3.41850000 shifted:  -0.13868731  tailcorrection: no
  Mof_Ca -   C_benz [lennard-jones] epsilon:  37.98552356 sigma:   3.67000000 shifted:  -0.12423143  tailcorrection: no
  Mof_Ca -   H_benz [lennard-jones] epsilon:  34.58540154 sigma:   3.05000000 shifted:  -0.03728613  tailcorrection: no
  Mof_Ca -    N_dmf [lennard-jones] epsilon:  61.31883887 sigma:   3.47000000 shifted:  -0.14331423  tailcorrection: no
  Mof_Ca -   Co_dmf [lennard-jones] epsilon:  48.47679857 sigma:   3.72000000 shifted:  -0.17194062  tailcorrection: no
  Mof_Ca -   Cm_dmf [lennard-jones] epsilon:  61.31883887 sigma:   3.77000000 shifted:  -0.23561165  tailcorrection: no
  Mof_Ca -    O_dmf [lennard-jones] epsilon:  68.55654600 sigma:   3.35000000 shifted:  -0.12974322  tailcorrection: no
  Mof_Ca -    H_dmf [lennard-jones] epsilon:  19.39071943 sigma:   2.97000000 shifted:  -0.01782401  tailcorrection: no
  Mof_Ca -       Kr [lennard-jones] epsilon:  88.43528707 sigma:   3.68800000 shifted:  -0.29783618  tailcorrection: no
  Mof_Ca -       Xe [lennard-jones] epsilon: 101.91663260 sigma:   3.92000000 shifted:  -0.49477293  tailcorrection: no
  Mof_Cb -   Mof_Cb [lennard-jones] epsilon:  47.86000000 sigma:   3.47000000 shifted:  -0.11185826  tailcorrection: no
  Mof_Cb -   Mof_Cc [lennard-jones] epsilon:  47.86000000 sigma:   3.47000000 shifted:  -0.11185826  tailcorrection: no
  Mof_Cb -    Mof_H [lennard-jones] epsilon:  19.13449764 sigma:   3.16000000 shifted:  -0.02551334  tailcorrection: no
  Mof_Cb -  CH4_sp3 [lennard-jones] epsilon:  87.09655562 sigma:   3.59500000 shifted:  -0.25168236  tailcorrection: no
  Mof_Cb -  CH3_sp3 [lennard-jones] epsilon:  71.89492333 sigma:   3.61500000 shifted:  -0.21478098  tailcorrection: no
  Mof_Cb -  CH2_sp3 [lennard-jones] epsilon:  51.77026173 sigma:   3.71500000 shifted:  -0.18214753  tailcorrection: no
  Mof_Cb -   CH_sp3 [lennard-jones] epsilon:  28.52402496 sigma:   4.07000000 shifted:  -0.17341561  tailcorrection: no
  Mof_Cb -    C_sp3 [lennard-jones] epsilon:   6.18772979 sigma:   4.92500000 shifted:  -0.11772284  tailcorrection: no
  Mof_Cb -    H_com [lennard-jones] epsilon:  41.91016583 sigma:   3.21400000 shifted:  -0.06185955  tailcorrection: no
  Mof_Cb -    C_co2 [lennard-jones] epsilon:  35.94746166 sigma:   3.13500000 shifted:  -0.04570123  tailcorrection: no
  Mof_Cb -    O_co2 [lennard-jones] epsilon:  61.48934867 sigma:   3.26000000 shifted:  -0.09883332  tailcorrection: no
  Mof_Cb -     N_n2 [lennard-jones] epsilon:  41.50855334 sigma:   3.39000000 shifted:  -0.08435047  tailcorrection: no
  Mof_Cb -       Ar [lennard-jones] epsilon:  75.72072372 sigma:   3.40500000 shifted:  -0.15800224  tailcorrection: no
  Mof_Cb -       Ow [lennard-jones] epsilon:  65.49683489 sigma:   3.28350000 shifted:  -0.10990884  tailcorrection: no
  Mof_Cb -   C_benz [lennard-jones] epsilon:  38.33147532 sigma:   3.53500000 shifted:  -0.10013379  tailcorrection: no
  Mof_Cb -   H_benz [lennard-jones] epsilon:  34.90038682 sigma:   2.91500000 shifted:  -0.02867774  tailcorrection: no
  Mof_Cb -    N_dmf [lennard-jones] epsilon:  61.87729794 sigma:   3.33500000 shifted:  -0.11399314  tailcorrection: no
  Mof_Cb -   Co_dmf [lennard-jones] epsilon:  48.91829923 sigma:   3.58500000 shifted:  -0.13901765  tailcorrection: no
  Mof_Cb -   Cm_dmf [lennard-jones] epsilon:  61.87729794 sigma:   3.63500000 shifted:  -0.19107096  tailcorrection: no
  Mof_Cb -    O_dmf [lennard-jones] epsilon:  69.18092223 sigma:   3.21500000 shifted:  -0.10230199  tailcorrection: no
  Mof_Cb -    H_dmf [lennard-jones] epsilon:  19.56731969 sigma:   2.83500000 shifted:  -0.01360651  tailcorrection: no
  Mof_Cb -       Kr [lennard-jones] epsilon:  89.24070820 sigma:   3.55300000 shifted:  -0.24033337  tailcorrection: no
  Mof_Cb -       Xe [lennard-jones] epsilon: 102.84483458 sigma:   3.78500000 shifted:  -0.40468997  tailcorrection: no
  Mof_Cc -   Mof_Cc [lennard-jones] epsilon:  47.86000000 sigma:   3.47000000 shifted:  -0.11185826  tailcorrection: no
  Mof_Cc -    Mof_H [lennard-jones] epsilon:  19.13449764 sigma:   3.16000000 shifted:  -0.02551334  tailcorrection: no
  Mof_Cc -  CH4_sp3 [lennard-jones] epsilon:  87.09655562 sigma:   3.59500000 shifted:  -0.25168236  tailcorrection: no
  Mof_Cc -  CH3_sp3 [lennard-jones] epsilon:  71.89492333 sigma:   3.61500000 shifted:  -0.21478098  tailcorrection: no
  Mof_Cc -  CH2_sp3 [lennard-jones] epsilon:  51.77026173 sigma:   3.71500000 shifted:  -0.18214753  tailcorrection: no
  Mof_Cc -   CH_sp3 [lennard-jones] epsilon:  28.52402496 sigma:   4.07000000 shifted:  -0.17341561  tailcorrection: no
  Mof_Cc -    C_sp3 [lennard-jones] epsilon:   6.18772979 sigma:   4.92500000 shifted:  -0.11772284  tailcorrection: no
  Mof_Cc -    H_com [lennard-jones] epsilon:  41.91016583 sigma:   3.21400000 shifted:  -0.06185955  tailcorrection: no
  Mof_Cc -    C_co2 [lennard-jones] epsilon:  35.94746166 sigma:   3.13500000 shifted:  -0.04570123  tailcorrection: no
  Mof_Cc -    O_co2 [lennard-jones] epsilon:  61.48934867 sigma:   3.26000000 shifted:  -0.09883332  tailcorrection: no
  Mof_Cc -     N_n2 [lennard-jones] epsilon:  41.50855334 sigma:   3.39000000 shifted:  -0.08435047  tailcorrection: no
  Mof_Cc -       Ar [lennard-jones] epsilon:  75.72072372 sigma:   3.40500000 shifted:  -0.15800224  tailcorrection: no
  Mof_Cc -       Ow [lennard-jones] epsilon:  65.49683489 sigma:   3.28350000 shifted:  -0.10990884  tailcorrection: no
  Mof_Cc -   C_benz [lennard-jones] epsilon:  38.33147532 sigma:   3.53500000 shifted:  -0.10013379  tailcorrection: no
  Mof_Cc -   H_benz [lennard-jones] epsilon:  34.90038682 sigma:   2.91500000 shifted:  -0.02867774  tailcorrection: no
  Mof_Cc -    N_dmf [lennard-jones] epsilon:  61.87729794 sigma:   3.33500000 shifted:  -0.11399314  tailcorrection: no
  Mof_Cc -   Co_dmf [lennard-jones] epsilon:  48.91829923 sigma:   3.58500000 shifted:  -0.13901765  tailcorrection: no
  Mof_Cc -   Cm_dmf [lennard-jones] epsilon:  61.87729794 sigma:   3.63500000 shifted:  -0.19107096  tailcorrection: no
  Mof_Cc -    O_dmf [lennard-jones] epsilon:  69.18092223 sigma:   3.21500000 shifted:  -0.10230199  tailcorrection: no
  Mof_Cc -    H_dmf [lennard-jones] epsilon:  19.56731969 sigma:   2.83500000 shifted:  -0.01360651  tailcorrection: no
  Mof_Cc -       Kr [lennard-jones] epsilon:  89.24070820 sigma:   3.55300000 shifted:  -0.24033337  tailcorrection: no
  Mof_Cc -       Xe [lennard-jones] epsilon: 102.84483458 sigma:   3.78500000 shifted:  -0.40468997  tailcorrection: no
   Mof_H -    Mof_H [lennard-jones] epsilon:   7.65000000 sigma:   2.85000000 shifted:  -0.00549067  tailcorrection: no
   Mof_H -  CH4_sp3 [lennard-jones] epsilon:  34.82132967 sigma:   3.28500000 shifted:  -0.05859321  tailcorrection: no
   Mof_H -  CH3_sp3 [lennard-jones] epsilon:  28.74369496 sigma:   3.30500000 shifted:  -0.05015963  tailcorrection: no
   Mof_H -  CH2_sp3 [lennard-jones] epsilon:  20.69782597 sigma:   3.40500000 shifted:  -0.04318901  tailcorrection: no
   Mof_H -   CH_sp3 [lennard-jones] epsilon:  11.40394669 sigma:   3.76000000 shifted:  -0.04312644  tailcorrection: no
   Mof_H -    C_sp3 [lennard-jones] epsilon:   2.47386338 sigma:   4.61500000 shifted:  -0.03191325  tailcorrection: no
   Mof_H -    H_com [lennard-jones] epsilon:  16.75574528 sigma:   2.90400000 shifted:  -0.01345949  tailcorrection: no
   Mof_H -    C_co2 [lennard-jones] epsilon:  14.37184748 sigma:   2.82500000 shifted:  -0.00978412  tailcorrection: no
   Mof_H -    O_co2 [lennard-jones] epsilon:  24.58353107 sigma:   2.95000000 shifted:  -0.02169966  tailcorrection: no
   Mof_H -     N_n2 [lennard-jones] epsilon:  16.59518002 sigma:   3.08000000 shifted:  -0.01897294  tailcorrection: no
   Mof_H -       Ar [lennard-jones] epsilon:  30.27325552 sigma:   3.09500000 shifted:  -0.03563426  tailcorrection: no
   Mof_H -       Ow [lennard-jones] epsilon:  26.18572989 sigma:   2.97350000 shifted:  -0.02424065  tailcorrection: no
   Mof_H -   C_benz [lennard-jones] epsilon:  15.32497961 sigma:   3.22500000 shifted:  -0.02308804  tailcorrection: no
   Mof_H -   H_benz [lennard-jones] epsilon:  13.95322543 sigma:   2.60500000 shifted:  -0.00584047  tailcorrection: no
   Mof_H -    N_dmf [lennard-jones] epsilon:  24.73863375 sigma:   3.02500000 shifted:  -0.02538569  tailcorrection: no
   Mof_H -   Co_dmf [lennard-jones] epsilon:  19.55760722 sigma:   3.27500000 shifted:  -0.03231295  tailcorrection: no
   Mof_H -   Cm_dmf [lennard-jones] epsilon:  24.73863375 sigma:   3.32500000 shifted:  -0.04476118  tailcorrection: no
   Mof_H -    O_dmf [lennard-jones] epsilon:  27.65863337 sigma:   2.90500000 shifted:  -0.02226346  tailcorrection: no
   Mof_H -    H_dmf [lennard-jones] epsilon:   7.82304289 sigma:   2.52500000 shifted:  -0.00271568  tailcorrection: no
   Mof_H -       Kr [lennard-jones] epsilon:  35.67856499 sigma:   3.24300000 shifted:  -0.05557665  tailcorrection: no
   Mof_H -       Xe [lennard-jones] epsilon:  41.11751452 sigma:   3.47500000 shifted:  -0.09693309  tailcorrection: no
 CH4_sp3 -  CH4_sp3 [lennard-jones] epsilon: 158.50000000 sigma:   3.72000000 shifted:  -0.56217796  tailcorrection: no
 CH4_sp3 -  CH3_sp3 [lennard-jones] epsilon: 130.83577492 sigma:   3.74000000 shifted:  -0.47921501  tailcorrection: no
 CH4_sp3 -  CH2_sp3 [lennard-jones] epsilon:  94.21252571 sigma:   3.84000000 shifted:  -0.40420524  tailcorrection: no
 CH4_sp3 -   CH_sp3 [lennard-jones] epsilon:  51.90857347 sigma:   4.19500000 shifted:  -0.37827707  tailcorrection: no
 CH4_sp3 -    C_sp3 [lennard-jones] epsilon:  11.26055061 sigma:   5.05000000 shifted:  -0.24880626  tailcorrection: no
 CH4_sp3 -    H_com [lennard-jones] epsilon:  76.26893208 sigma:   3.33900000 shifted:  -0.14151976  tailcorrection: no
 CH4_sp3 -    C_co2 [lennard-jones] epsilon:  65.41788746 sigma:   3.26000000 shifted:  -0.10514776  tailcorrection: no
 CH4_sp3 -    O_co2 [lennard-jones] epsilon: 111.89950849 sigma:   3.38500000 shifted:  -0.22538960  tailcorrection: no
 CH4_sp3 -     N_n2 [lennard-jones] epsilon:  75.53806987 sigma:   3.51500000 shifted:  -0.19072867  tailcorrection: no
 CH4_sp3 -       Ar [lennard-jones] epsilon: 137.79804062 sigma:   3.53000000 shifted:  -0.35692937  tailcorrection: no
 CH4_sp3 -       Ow [lennard-jones] epsilon: 119.19240957 sigma:   3.40850000 shifted:  -0.25024924  tailcorrection: no
 CH4_sp3 -   C_benz [lennard-jones] epsilon:  69.75636172 sigma:   3.66000000 shifted:  -0.22443630  tailcorrection: no
 CH4_sp3 -   H_benz [lennard-jones] epsilon:  63.51240036 sigma:   3.04000000 shifted:  -0.06713635  tailcorrection: no
 CH4_sp3 -    N_dmf [lennard-jones] epsilon: 112.60550608 sigma:   3.46000000 shifted:  -0.25866586  tailcorrection: no
 CH4_sp3 -   Co_dmf [lennard-jones] epsilon:  89.02246907 sigma:   3.71000000 shifted:  -0.31069637  tailcorrection: no
 CH4_sp3 -   Cm_dmf [lennard-jones] epsilon: 112.60550608 sigma:   3.76000000 shifted:  -0.42584155  tailcorrection: no
 CH4_sp3 -    O_dmf [lennard-jones] epsilon: 125.89678312 sigma:   3.34000000 shifted:  -0.23402593  tailcorrection: no
 CH4_sp3 -    H_dmf [lennard-jones] epsilon:  35.60898763 sigma:   2.96000000 shifted:  -0.03207632  tailcorrection: no
 CH4_sp3 -       Kr [lennard-jones] epsilon: 162.40197043 sigma:   3.67800000 shifted:  -0.53811358  tailcorrection: no
 CH4_sp3 -       Xe [lennard-jones] epsilon: 187.15902329 sigma:   3.91000000 shifted:  -0.89479554  tailcorrection: no
 CH3_sp3 -  CH3_sp3 [lennard-jones] epsilon: 108.00000000 sigma:   3.76000000 shifted:  -0.40842485  tailcorrection: no
 CH3_sp3 -  CH2_sp3 [lennard-jones] epsilon:  77.76888838 sigma:   3.86000000 shifted:  -0.34420794  tailcorrection: no
 CH3_sp3 -   CH_sp3 [lennard-jones] epsilon:  42.84857057 sigma:   4.21500000 shifted:  -0.32127575  tailcorrection: no
 CH3_sp3 -    C_sp3 [lennard-jones] epsilon:   9.29516003 sigma:   5.07000000 shifted:  -0.21028090  tailcorrection: no
 CH3_sp3 -    H_com [lennard-jones] epsilon:  62.95712827 sigma:   3.35900000 shifted:  -0.12107891  tailcorrection: no
 CH3_sp3 -    C_co2 [lennard-jones] epsilon:  54.00000000 sigma:   3.28000000 shifted:  -0.09003849  tailcorrection: no
 CH3_sp3 -    O_co2 [lennard-jones] epsilon:  92.36882591 sigma:   3.40500000 shifted:  -0.19274091  tailcorrection: no
 CH3_sp3 -     N_n2 [lennard-jones] epsilon:  62.35382907 sigma:   3.53500000 shifted:  -0.16288768  tailcorrection: no
 CH3_sp3 -       Ar [lennard-jones] epsilon: 113.74708787 sigma:   3.55000000 shifted:  -0.30478368  tailcorrection: no
 CH3_sp3 -       Ow [lennard-jones] epsilon:  98.38884083 sigma:   3.42850000 shifted:  -0.21394739  tailcorrection: no
 CH3_sp3 -   C_benz [lennard-jones] epsilon:  57.58124695 sigma:   3.68000000 shifted:  -0.19141639  tailcorrection: no
 CH3_sp3 -   H_benz [lennard-jones] epsilon:  52.42709223 sigma:   3.06000000 shifted:  -0.05764179  tailcorrection: no
 CH3_sp3 -    N_dmf [lennard-jones] epsilon:  92.95160031 sigma:   3.48000000 shifted:  -0.22102757  tailcorrection: no
 CH3_sp3 -   Co_dmf [lennard-jones] epsilon:  73.48469228 sigma:   3.73000000 shifted:  -0.26486862  tailcorrection: no
 CH3_sp3 -   Cm_dmf [lennard-jones] epsilon:  92.95160031 sigma:   3.78000000 shifted:  -0.36287388  tailcorrection: no
 CH3_sp3 -    O_dmf [lennard-jones] epsilon: 103.92304845 sigma:   3.36000000 shifted:  -0.20022151  tailcorrection: no
 CH3_sp3 -    H_dmf [lennard-jones] epsilon:  29.39387691 sigma:   2.98000000 shifted:  -0.02756926  tailcorrection: no
 CH3_sp3 -       Kr [lennard-jones] epsilon: 134.05670442 sigma:   3.69800000 shifted:  -0.45887075  tailcorrection: no
 CH3_sp3 -       Xe [lennard-jones] epsilon: 154.49271828 sigma:   3.93000000 shifted:  -0.76155214  tailcorrection: no
 CH2_sp3 -  CH2_sp3 [lennard-jones] epsilon:  56.00000000 sigma:   3.96000000 shifted:  -0.28891522  tailcorrection: no
 CH2_sp3 -   CH_sp3 [lennard-jones] epsilon:  30.85449724 sigma:   4.31500000 shifted:  -0.26621710  tailcorrection: no
 CH2_sp3 -    C_sp3 [lennard-jones] epsilon:   6.69328021 sigma:   5.17000000 shifted:  -0.17012512  tailcorrection: no
 CH2_sp3 -    H_com [lennard-jones] epsilon:  45.33431371 sigma:   3.45900000 shifted:  -0.10395700  tailcorrection: no
 CH2_sp3 -    C_co2 [lennard-jones] epsilon:  38.88444419 sigma:   3.38000000 shifted:  -0.07763038  tailcorrection: no
 CH2_sp3 -    O_co2 [lennard-jones] epsilon:  66.51315659 sigma:   3.50500000 shifted:  -0.16509673  tailcorrection: no
 CH2_sp3 -     N_n2 [lennard-jones] epsilon:  44.89988864 sigma:   3.63500000 shifted:  -0.13864641  tailcorrection: no
 CH2_sp3 -       Ar [lennard-jones] epsilon:  81.90726464 sigma:   3.65000000 shifted:  -0.25924362  tailcorrection: no
 CH2_sp3 -       Ow [lennard-jones] epsilon:  70.84806278 sigma:   3.52850000 shifted:  -0.18304608  tailcorrection: no
 CH2_sp3 -   C_benz [lennard-jones] epsilon:  41.46323673 sigma:   3.78000000 shifted:  -0.16186838  tailcorrection: no
 CH2_sp3 -   H_benz [lennard-jones] epsilon:  37.75182115 sigma:   3.16000000 shifted:  -0.05033709  tailcorrection: no
 CH2_sp3 -    N_dmf [lennard-jones] epsilon:  66.93280212 sigma:   3.58000000 shifted:  -0.18862679  tailcorrection: no
 CH2_sp3 -   Co_dmf [lennard-jones] epsilon:  52.91502622 sigma:   3.83000000 shifted:  -0.22350377  tailcorrection: no
 CH2_sp3 -   Cm_dmf [lennard-jones] epsilon:  66.93280212 sigma:   3.88000000 shifted:  -0.30556623  tailcorrection: no
 CH2_sp3 -    O_dmf [lennard-jones] epsilon:  74.83314774 sigma:   3.46000000 shifted:  -0.17189906  tailcorrection: no
 CH2_sp3 -    H_dmf [lennard-jones] epsilon:  21.16601049 sigma:   3.08000000 shifted:  -0.02419868  tailcorrection: no
 CH2_sp3 -       Kr [lennard-jones] epsilon:  96.53186003 sigma:   3.79800000 shifted:  -0.38773606  tailcorrection: no
 CH2_sp3 -       Xe [lennard-jones] epsilon: 111.24747188 sigma:   4.03000000 shifted:  -0.63748422  tailcorrection: no
  CH_sp3 -   CH_sp3 [lennard-jones] epsilon:  17.00000000 sigma:   4.67000000 shifted:  -0.23540268  tailcorrection: no
  CH_sp3 -    C_sp3 [lennard-jones] epsilon:   3.68781778 sigma:   5.52500000 shifted:  -0.13918063  tailcorrection: no
  CH_sp3 -    H_com [lennard-jones] epsilon:  24.97799031 sigma:   3.81400000 shifted:  -0.10288835  tailcorrection: no
  CH_sp3 -    C_co2 [lennard-jones] epsilon:  21.42428529 sigma:   3.73500000 shifted:  -0.07784441  tailcorrection: no
  CH_sp3 -    O_co2 [lennard-jones] epsilon:  36.64696440 sigma:   3.86000000 shifted:  -0.16220080  tailcorrection: no
  CH_sp3 -     N_n2 [lennard-jones] epsilon:  24.73863375 sigma:   3.99000000 shifted:  -0.13353599  tailcorrection: no
  CH_sp3 -       Ar [lennard-jones] epsilon:  45.12870483 sigma:   4.00500000 shifted:  -0.24913794  tailcorrection: no
  CH_sp3 -       Ow [lennard-jones] epsilon:  39.03538139 sigma:   3.88350000 shifted:  -0.17917260  tailcorrection: no
  CH_sp3 -   C_benz [lennard-jones] epsilon:  22.84513077 sigma:   4.13500000 shifted:  -0.15271849  tailcorrection: no
  CH_sp3 -   H_benz [lennard-jones] epsilon:  20.80024038 sigma:   3.51500000 shifted:  -0.05251924  tailcorrection: no
  CH_sp3 -    N_dmf [lennard-jones] epsilon:  36.87817783 sigma:   3.93500000 shifted:  -0.18317664  tailcorrection: no
  CH_sp3 -   Co_dmf [lennard-jones] epsilon:  29.15475947 sigma:   4.18500000 shifted:  -0.20944628  tailcorrection: no
  CH_sp3 -   Cm_dmf [lennard-jones] epsilon:  36.87817783 sigma:   4.23500000 shifted:  -0.28446087  tailcorrection: no
  CH_sp3 -    O_dmf [lennard-jones] epsilon:  41.23105626 sigma:   3.81500000 shifted:  -0.17010442  tailcorrection: no
  CH_sp3 -    H_dmf [lennard-jones] epsilon:  11.66190379 sigma:   3.43500000 shifted:  -0.02564859  tailcorrection: no
  CH_sp3 -       Kr [lennard-jones] epsilon:  53.18646444 sigma:   4.15300000 shifted:  -0.36492058  tailcorrection: no
  CH_sp3 -       Xe [lennard-jones] epsilon:  61.29437168 sigma:   4.38500000 shifted:  -0.58233847  tailcorrection: no
   C_sp3 -    C_sp3 [lennard-jones] epsilon:   0.80000000 sigma:   6.38000000 shifted:  -0.07064236  tailcorrection: no
   C_sp3 -    H_com [lennard-jones] epsilon:   5.41848687 sigma:   4.66900000 shifted:  -0.07493495  tailcorrection: no
   C_sp3 -    C_co2 [lennard-jones] epsilon:   4.64758002 sigma:   4.59000000 shifted:  -0.05803811  tailcorrection: no
   C_sp3 -    O_co2 [lennard-jones] epsilon:   7.94984277 sigma:   4.71500000 shifted:  -0.11657898  tailcorrection: no
   C_sp3 -     N_n2 [lennard-jones] epsilon:   5.36656315 sigma:   4.84500000 shifted:  -0.09258616  tailcorrection: no
   C_sp3 -       Ar [lennard-jones] epsilon:   9.78979060 sigma:   4.86000000 shifted:  -0.17204528  tailcorrection: no
   C_sp3 -       Ow [lennard-jones] epsilon:   8.46796316 sigma:   4.73850000 shifted:  -0.12792259  tailcorrection: no
   C_sp3 -   C_benz [lennard-jones] epsilon:   4.95580468 sigma:   4.99000000 shifted:  -0.10196209  tailcorrection: no
   C_sp3 -   H_benz [lennard-jones] epsilon:   4.51220567 sigma:   4.37000000 shifted:  -0.04199870  tailcorrection: no
   C_sp3 -    N_dmf [lennard-jones] epsilon:   8.00000000 sigma:   4.79000000 shifted:  -0.12891851  tailcorrection: no
   C_sp3 -   Co_dmf [lennard-jones] epsilon:   6.32455532 sigma:   5.04000000 shifted:  -0.13810052  tailcorrection: no
   C_sp3 -   Cm_dmf [lennard-jones] epsilon:   8.00000000 sigma:   5.09000000 shifted:  -0.18528168  tailcorrection: no
   C_sp3 -    O_dmf [lennard-jones] epsilon:   8.94427191 sigma:   4.67000000 shifted:  -0.12385327  tailcorrection: no
   C_sp3 -    H_dmf [lennard-jones] epsilon:   2.52982213 sigma:   4.29000000 shifted:  -0.02108136  tailcorrection: no
   C_sp3 -       Kr [lennard-jones] epsilon:  11.53776408 sigma:   5.00800000 shifted:  -0.24253786  tailcorrection: no
   C_sp3 -       Xe [lennard-jones] epsilon:  13.29661611 sigma:   5.24000000 shifted:  -0.36616773  tailcorrection: no
   H_com -    H_com [lennard-jones] epsilon:  36.70000000 sigma:   2.95800000 shifted:   0.00000000  tailcorrection: yes
   H_com -    C_co2 [lennard-jones] epsilon:  31.47856413 sigma:   2.87900000 shifted:  -0.02400792  tailcorrection: no
   H_com -    O_co2 [lennard-jones] epsilon:  53.84514834 sigma:   3.00400000 shifted:  -0.05299218  tailcorrection: no
   H_com -     N_n2 [lennard-jones] epsilon:  36.34831495 sigma:   3.13400000 shifted:  -0.04612251  tailcorrection: no
   H_com -       Ar [lennard-jones] epsilon:  66.30731483 sigma:   3.14900000 shifted:  -0.08658209  tailcorrection: no
   H_com -       Ow [lennard-jones] epsilon:  57.35443400 sigma:   3.02750000 shifted:  -0.05914696  tailcorrection: no
   H_com -   C_benz [lennard-jones] epsilon:  33.56620324 sigma:   3.27900000 shifted:  -0.05586534  tailcorrection: no
   H_com -   H_benz [lennard-jones] epsilon:  30.56165899 sigma:   2.65900000 shifted:  -0.01446799  tailcorrection: no
   H_com -    N_dmf [lennard-jones] epsilon:  54.18486874 sigma:   3.07900000 shifted:  -0.06182793  tailcorrection: no
   H_com -   Co_dmf [lennard-jones] epsilon:  42.83689998 sigma:   3.32900000 shifted:  -0.07806841  tailcorrection: no
   H_com -   Cm_dmf [lennard-jones] epsilon:  54.18486874 sigma:   3.37900000 shifted:  -0.10798493  tailcorrection: no
   H_com -    O_dmf [lennard-jones] epsilon:  60.58052492 sigma:   2.95900000 shifted:  -0.05446001  tailcorrection: no
   H_com -    H_dmf [lennard-jones] epsilon:  17.13475999 sigma:   2.57900000 shifted:  -0.00675330  tailcorrection: no
   H_com -       Kr [lennard-jones] epsilon:  78.14652903 sigma:   3.29700000 shifted:  -0.13440302  tailcorrection: no
   H_com -       Xe [lennard-jones] epsilon:  90.05942483 sigma:   3.52900000 shifted:  -0.23287915  tailcorrection: no
   C_co2 -    C_co2 [lennard-jones] epsilon:  27.00000000 sigma:   2.80000000 shifted:   0.00000000  tailcorrection: yes
   C_co2 -    O_co2 [lennard-jones] epsilon:  46.18441296 sigma:   2.92500000 shifted:   0.00000000  tailcorrection: yes
   C_co2 -     N_n2 [lennard-jones] epsilon:  31.17691454 sigma:   3.05500000 shifted:  -0.03394335  tailcorrection: no
   C_co2 -       Ar [lennard-jones] epsilon:  56.87354394 sigma:   3.07000000 shifted:  -0.06376631  tailcorrection: no
   C_co2 -       Ow [lennard-jones] epsilon:  49.19442042 sigma:   2.94850000 shifted:  -0.04329120  tailcorrection: no
   C_co2 -   C_benz [lennard-jones] epsilon:  28.79062347 sigma:   3.20000000 shifted:  -0.04139685  tailcorrection: no
   C_co2 -   H_benz [lennard-jones] epsilon:  26.21354612 sigma:   2.58000000 shifted:  -0.01035556  tailcorrection: no
   C_co2 -    N_dmf [lennard-jones] epsilon:  46.47580015 sigma:   3.00000000 shifted:  -0.04537544  tailcorrection: no
   C_co2 -   Co_dmf [lennard-jones] epsilon:  36.74234614 sigma:   3.25000000 shifted:  -0.05797866  tailcorrection: no
   C_co2 -   Cm_dmf [lennard-jones] epsilon:  46.47580015 sigma:   3.30000000 shifted:  -0.08037022  tailcorrection: no
   C_co2 -    O_dmf [lennard-jones] epsilon:  51.96152423 sigma:   2.88000000 shifted:  -0.03971242  tailcorrection: no
   C_co2 -    H_dmf [lennard-jones] epsilon:  14.69693846 sigma:   2.50000000 shifted:  -0.00480622  tailcorrection: no
   C_co2 -       Kr [lennard-jones] epsilon:  67.02835221 sigma:   3.21800000 shifted:  -0.09967489  tailcorrection: no
   C_co2 -       Xe [lennard-jones] epsilon:  77.24635914 sigma:   3.45000000 shifted:  -0.17438928  tailcorrection: no
   O_co2 -    O_co2 [lennard-jones] epsilon:  79.00000000 sigma:   3.05000000 shifted:   0.00000000  tailcorrection: yes
   O_co2 -     N_n2 [lennard-jones] epsilon:  53.32916650 sigma:   3.18000000 shifted:  -0.07384985  tailcorrection: no
   O_co2 -       Ar [lennard-jones] epsilon:  97.28411998 sigma:   3.19500000 shifted:  -0.13857501  tailcorrection: no
   O_co2 -       Ow [lennard-jones] epsilon:  84.14871954 sigma:   3.07350000 shifted:  -0.09499412  tailcorrection: no
   O_co2 -   C_benz [lennard-jones] epsilon:  49.24733495 sigma:   3.32500000 shifted:  -0.08910633  tailcorrection: no
   O_co2 -   H_benz [lennard-jones] epsilon:  44.83915699 sigma:   2.70500000 shifted:  -0.02352754  tailcorrection: no
   O_co2 -    N_dmf [lennard-jones] epsilon:  79.49842766 sigma:   3.12500000 shifted:  -0.09915068  tailcorrection: no
   O_co2 -   Co_dmf [lennard-jones] epsilon:  62.84902545 sigma:   3.37500000 shifted:  -0.12436516  tailcorrection: no
   O_co2 -   Cm_dmf [lennard-jones] epsilon:  79.49842766 sigma:   3.42500000 shifted:  -0.17181444  tailcorrection: no
   O_co2 -    O_dmf [lennard-jones] epsilon:  88.88194417 sigma:   3.00500000 shifted:  -0.08764877  tailcorrection: no
   O_co2 -    H_dmf [lennard-jones] epsilon:  25.13961018 sigma:   2.62500000 shifted:  -0.01101690  tailcorrection: no
   O_co2 -       Kr [lennard-jones] epsilon: 114.65426290 sigma:   3.34300000 shifted:  -0.21427817  tailcorrection: no
   O_co2 -       Xe [lennard-jones] epsilon: 132.13250925 sigma:   3.57500000 shifted:  -0.36926210  tailcorrection: no
    N_n2 -     N_n2 [lennard-jones] epsilon:  36.00000000 sigma:   3.31000000 shifted:   0.00000000  tailcorrection: yes
    N_n2 -       Ar [lennard-jones] epsilon:  65.67191180 sigma:   3.32500000 shifted:  -0.11882436  tailcorrection: no
    N_n2 -       Ow [lennard-jones] epsilon:  56.80482374 sigma:   3.20350000 shifted:  -0.08221459  tailcorrection: no
    N_n2 -   C_benz [lennard-jones] epsilon:  33.24454843 sigma:   3.45500000 shifted:  -0.07570661  tailcorrection: no
    N_n2 -   H_benz [lennard-jones] epsilon:  30.26879581 sigma:   2.83500000 shifted:  -0.02104798  tailcorrection: no
    N_n2 -    N_dmf [lennard-jones] epsilon:  53.66563146 sigma:   3.25500000 shifted:  -0.08546764  tailcorrection: no
    N_n2 -   Co_dmf [lennard-jones] epsilon:  42.42640687 sigma:   3.50500000 shifted:  -0.10530940  tailcorrection: no
    N_n2 -   Cm_dmf [lennard-jones] epsilon:  53.66563146 sigma:   3.55500000 shifted:  -0.14501493  tailcorrection: no
    N_n2 -    O_dmf [lennard-jones] epsilon:  60.00000000 sigma:   3.13500000 shifted:  -0.07628004  tailcorrection: no
    N_n2 -    H_dmf [lennard-jones] epsilon:  16.97056275 sigma:   2.75500000 shifted:  -0.00993882  tailcorrection: no
    N_n2 -       Kr [lennard-jones] epsilon:  77.39767438 sigma:   3.47300000 shifted:  -0.18183347  tailcorrection: no
    N_n2 -       Xe [lennard-jones] epsilon:  89.19641248 sigma:   3.70500000 shifted:  -0.30879681  tailcorrection: no
      Ar -       Ar [lennard-jones] epsilon: 119.80000000 sigma:   3.34000000 shifted:  -0.22269280  tailcorrection: no
      Ar -       Ow [lennard-jones] epsilon: 103.62448263 sigma:   3.21850000 shifted:  -0.15423903  tailcorrection: no
      Ar -   C_benz [lennard-jones] epsilon:  60.64536256 sigma:   3.47000000 shifted:  -0.14174018  tailcorrection: no
      Ar -   H_benz [lennard-jones] epsilon:  55.21693581 sigma:   2.85000000 shifted:  -0.03963109  tailcorrection: no
      Ar -    N_dmf [lennard-jones] epsilon:  97.89790600 sigma:   3.27000000 shifted:  -0.16027086  tailcorrection: no
      Ar -   Co_dmf [lennard-jones] epsilon:  77.39509028 sigma:   3.52000000 shifted:  -0.19709026  tailcorrection: no
      Ar -   Cm_dmf [lennard-jones] epsilon:  97.89790600 sigma:   3.57000000 shifted:  -0.27130264  tailcorrection: no
      Ar -    O_dmf [lennard-jones] epsilon: 109.45318634 sigma:   3.15000000 shifted:  -0.14319311  tailcorrection: no
      Ar -    H_dmf [lennard-jones] epsilon:  30.95803611 sigma:   2.77000000 shifted:  -0.01873091  tailcorrection: no
      Ar -       Kr [lennard-jones] epsilon: 141.19036794 sigma:   3.48800000 shifted:  -0.34038816  tailcorrection: no
      Ar -       Xe [lennard-jones] epsilon: 162.71385927 sigma:   3.72000000 shifted:  -0.57712394  tailcorrection: no
      Ow -       Ow [lennard-jones] epsilon:  89.63300000 sigma:   3.09700000 shifted:  -0.10591545  tailcorrection: no
      Ow -   C_benz [lennard-jones] epsilon:  52.45696427 sigma:   3.34850000 shifted:  -0.09900849  tailcorrection: no
      Ow -   H_benz [lennard-jones] epsilon:  47.76148919 sigma:   2.72850000 shifted:  -0.02639576  tailcorrection: no
      Ow -    N_dmf [lennard-jones] epsilon:  84.67963155 sigma:   3.14850000 shifted:  -0.11046685  tailcorrection: no
      Ow -   Co_dmf [lennard-jones] epsilon:  66.94512678 sigma:   3.39850000 shifted:  -0.13809914  tailcorrection: no
      Ow -   Cm_dmf [lennard-jones] epsilon:  84.67963155 sigma:   3.44850000 shifted:  -0.19067255  tailcorrection: no
      Ow -    O_dmf [lennard-jones] epsilon:  94.67470623 sigma:   3.02850000 shifted:  -0.09782722  tailcorrection: no
      Ow -    H_dmf [lennard-jones] epsilon:  26.77805071 sigma:   2.64850000 shifted:  -0.01237944  tailcorrection: no
      Ow -       Kr [lennard-jones] epsilon: 122.12670142 sigma:   3.36650000 shifted:  -0.23803624  tailcorrection: no
      Ow -       Xe [lennard-jones] epsilon: 140.74406915 sigma:   3.59850000 shifted:  -0.40908705  tailcorrection: no
  C_benz -   C_benz [lennard-jones] epsilon:  30.70000000 sigma:   3.60000000 shifted:   0.00000000  tailcorrection: yes
  C_benz -   H_benz [lennard-jones] epsilon:  27.95201245 sigma:   2.98000000 shifted:   0.00000000  tailcorrection: yes
  C_benz -    N_dmf [lennard-jones] epsilon:  49.55804677 sigma:   3.40000000 shifted:  -0.10250274  tailcorrection: no
  C_benz -   Co_dmf [lennard-jones] epsilon:  39.17907605 sigma:   3.65000000 shifted:  -0.12400518  tailcorrection: no
  C_benz -   Cm_dmf [lennard-jones] epsilon:  49.55804677 sigma:   3.70000000 shifted:  -0.17018595  tailcorrection: no
  C_benz -    O_dmf [lennard-jones] epsilon:  55.40758071 sigma:   3.28000000 shifted:  -0.09238546  tailcorrection: no
  C_benz -    H_dmf [lennard-jones] epsilon:  15.67163042 sigma:   2.90000000 shifted:  -0.01248499  tailcorrection: no
  C_benz -       Kr [lennard-jones] epsilon:  71.47363150 sigma:   3.61800000 shifted:  -0.21458700  tailcorrection: no
  C_benz -       Xe [lennard-jones] epsilon:  82.36929039 sigma:   3.85000000 shifted:  -0.35894533  tailcorrection: no
  H_benz -   H_benz [lennard-jones] epsilon:  25.45000000 sigma:   2.36000000 shifted:   0.00000000  tailcorrection: yes
  H_benz -    N_dmf [lennard-jones] epsilon:  45.12205669 sigma:   2.78000000 shifted:  -0.02789736  tailcorrection: no
  H_benz -   Co_dmf [lennard-jones] epsilon:  35.67211796 sigma:   3.03000000 shifted:  -0.03696959  tailcorrection: no
  H_benz -   Cm_dmf [lennard-jones] epsilon:  45.12205669 sigma:   3.08000000 shifted:  -0.05158715  tailcorrection: no
  H_benz -    O_dmf [lennard-jones] epsilon:  50.44799302 sigma:   2.66000000 shifted:  -0.02393617  tailcorrection: no
  H_benz -    H_dmf [lennard-jones] epsilon:  14.26884719 sigma:   2.28000000 shifted:  -0.00268504  tailcorrection: no
  H_benz -       Kr [lennard-jones] epsilon:  65.07595562 sigma:   2.99800000 shifted:  -0.06328157  tailcorrection: no
  H_benz -       Xe [lennard-jones] epsilon:  74.99633324 sigma:   3.23000000 shifted:  -0.11404139  tailcorrection: no
   N_dmf -    N_dmf [lennard-jones] epsilon:  80.00000000 sigma:   3.20000000 shifted:  -0.11502869  tailcorrection: no
   N_dmf -   Co_dmf [lennard-jones] epsilon:  63.24555320 sigma:   3.45000000 shifted:  -0.14278144  tailcorrection: no
   N_dmf -   Cm_dmf [lennard-jones] epsilon:  80.00000000 sigma:   3.50000000 shifted:  -0.19688078  tailcorrection: no
   N_dmf -    O_dmf [lennard-jones] epsilon:  89.44271910 sigma:   3.08000000 shifted:  -0.10225808  tailcorrection: no
   N_dmf -    H_dmf [lennard-jones] epsilon:  25.29822128 sigma:   2.70000000 shifted:  -0.01312770  tailcorrection: no
   N_dmf -       Kr [lennard-jones] epsilon: 115.37764081 sigma:   3.41800000 shifted:  -0.24631709  tailcorrection: no
   N_dmf -       Xe [lennard-jones] epsilon: 132.96616111 sigma:   3.65000000 shifted:  -0.42084946  tailcorrection: no
  Co_dmf -   Co_dmf [lennard-jones] epsilon:  50.00000000 sigma:   3.70000000 shifted:  -0.17170365  tailcorrection: no
  Co_dmf -   Cm_dmf [lennard-jones] epsilon:  63.24555320 sigma:   3.75000000 shifted:  -0.23538862  tailcorrection: no
  Co_dmf -    O_dmf [lennard-jones] epsilon:  70.71067812 sigma:   3.33000000 shifted:  -0.12909950  tailcorrection: no
  Co_dmf -    H_dmf [lennard-jones] epsilon:  20.00000000 sigma:   2.95000000 shifted:  -0.01765382  tailcorrection: no
  Co_dmf -       Kr [lennard-jones] epsilon:  91.21403401 sigma:   3.66800000 shifted:  -0.29734167  tailcorrection: no
  Co_dmf -       Xe [lennard-jones] epsilon: 105.11898021 sigma:   3.90000000 shifted:  -0.49491340  tailcorrection: no
  Cm_dmf -   Cm_dmf [lennard-jones] epsilon:  80.00000000 sigma:   3.80000000 shifted:  -0.32234871  tailcorrection: no
  Cm_dmf -    O_dmf [lennard-jones] epsilon:  89.44271910 sigma:   3.38000000 shifted:  -0.17856683  tailcorrection: no
  Cm_dmf -    H_dmf [lennard-jones] epsilon:  25.29822128 sigma:   3.00000000 shifted:  -0.02469926  tailcorrection: no
  Cm_dmf -       Kr [lennard-jones] epsilon: 115.37764081 sigma:   3.71800000 shifted:  -0.40791166  tailcorrection: no
  Cm_dmf -       Xe [lennard-jones] epsilon: 132.96616111 sigma:   3.95000000 shifted:  -0.67568369  tailcorrection: no
   O_dmf -    O_dmf [lennard-jones] epsilon: 100.00000000 sigma:   2.96000000 shifted:  -0.09007929  tailcorrection: no
   O_dmf -    H_dmf [lennard-jones] epsilon:  28.28427125 sigma:   2.58000000 shifted:  -0.01117359  tailcorrection: no
   O_dmf -       Kr [lennard-jones] epsilon: 128.99612397 sigma:   3.29800000 shifted:  -0.22226234  tailcorrection: no
   O_dmf -       Xe [lennard-jones] epsilon: 148.66068747 sigma:   3.53000000 shifted:  -0.38506618  tailcorrection: no
   H_dmf -    H_dmf [lennard-jones] epsilon:   8.00000000 sigma:   2.20000000 shifted:  -0.00121502  tailcorrection: no
   H_dmf -       Kr [lennard-jones] epsilon:  36.48561360 sigma:   2.91800000 shifted:  -0.03016589  tailcorrection: no
   H_dmf -       Xe [lennard-jones] epsilon:  42.04759208 sigma:   3.15000000 shifted:  -0.05500914  tailcorrection: no
      Kr -       Kr [lennard-jones] epsilon: 166.40000000 sigma:   3.63600000 shifted:  -0.51467477  tailcorrection: no
      Kr -       Xe [lennard-jones] epsilon: 191.76652471 sigma:   3.86800000 shifted:  -0.85936317  tailcorrection: no
      Xe -       Xe [lennard-jones] epsilon: 221.00000000 sigma:   4.10000000 shifted:  -1.40403037  tailcorrection: no


MoleculeDefinitions:
===========================================================================
Component 0 [CO2] (Adsorbate molecule)

	MoleculeDefinitions: TraPPE
	Component contains (at least some) atoms which are charged
	Component contains no atoms with point dipoles (polarization)
	Component has a net charge of 0.000000

	Ideal chain Rosenbluth weight: 1.000000
	Ideal chain total energy: 0.000000

	Critical temparure [K]: 304.128200
	Critical pressure [Pa]: 7377300.000000
	Acentric factor [-]: 0.223940

	Fluid is a vapour

	MolFraction:           1.0000000000 [-]
	Compressibility:       0.9945133087 [-]

	Density of the bulk fluid phase:       1.7855814412 [kg/m^3]

	Amount of excess molecules:       0.3454440934 [-]

	Conversion factor molecules/unit cell -> mol/kg:       0.1623747175 [-]
	Conversion factor molecules/unit cell -> gr/gr:       7.1442927209 [-]
	Conversion factor molecules/unit cell -> cm^3 STP/gr:       3.6394629804 [-]
	Conversion factor molecules/unit cell -> cm^3 STP/cm^3:       2.1592046669 [-]
	Conversion factor mol/kg -> cm^3 STP/gr:      13.2976654244 [-]
	Conversion factor mol/kg -> cm^3 STP/cm^3:       0.0000000000 [-]

	Partial pressure:  100000.0000000000 [Pa]
	                      750.0000000000 [Torr]
	                        1.0000000000 [bar]
	                        0.9869232667 [atm]

	Fugacity coefficient:       0.9945357133 [-]

	Partial fugacity:   99453.5713266014 [Pa]
	                      745.9017849495 [Torr]
	                        0.9945357133 [bar]
	                        0.9815304350 [atm]

	Molecule contains 3 number of atoms
		atom:    0  is of type:   18 [     O_co2] (group: 0)
		atom:    1  is of type:   17 [     C_co2] (group: 0)
		atom:    2  is of type:   18 [     O_co2] (group: 0)

	Molecule contains 0 chirality centers

	Molecule contains 1 number of groups

		group: 0 containing: 3 elements
		-------------------------------------------------
		the group is rigid and linear
		Mass: 43.998800 [a.u.]
		Mass: 4.238536 [kg/m^3]

		Rotational Degrees of freedom: 2
		Diagonalized inertia vector:      43.0575852800
		                                  43.0575852800
		                                   0.0000000000
		element: 0 atom: 0 (O_co2) Position: 0.000000 -0.000000 1.160000 Connectivity: 1
		element: 1 atom: 1 (C_co2) Position: 0.000000 -0.000000 0.000000 Connectivity: 2
		element: 2 atom: 2 (O_co2) Position: 0.000000 -0.000000 -1.160000 Connectivity: 1

		Dipole:           0.0000000000 [D]
		Quadrupole:       2.2621182741       2.2621182741      -4.5242365482 [D Angstrom]
		Quadrupole tensor [D Angstrom]
				       2.2621182741       0.0000000000       0.0000000000
				       0.0000000000       2.2621182741       0.0000000000
				       0.0000000000       0.0000000000      -4.5242365482

	Starting bead for growth               : 0

	Number of atoms                        : 3

	Number of constraints bonds            : 0
	Number of bonds                        : 2
	Number of Urey-Bradleys                : 0
	Number of bends                        : 0
	Number of inversion bends              : 0
	Number of torsions                     : 0
	Number of improper torsions            : 0

	Number of bond/bond cross terms        : 0
	Number of bond/bend cross terms        : 0
	Number of bend/bend cross terms        : 0
	Number of stretch/torsion cross terms  : 0
	Number of bend/torsion cross terms     : 0

	Number of charges                      : 3
	Number of bond-dipoles                 : 0

	Number of intra Van der Waals                             : 0
	Number of intra charge-charge Coulomb                     : 0
	Number of intra charge-bonddipole Coulomb                 : 0
	Number of intra bonddipole-bonddipole Coulomb             : 0

	Number of cbmc-config moves                               : 0

	Particle Moves:             
		ProbabilityTranslationMove:                  25.000000
			TranslationDirection:      XYZ
		Percentage of random translation moves:      0.000000
		Percentage of rotation moves:                25.000000
		Percentage of CBMC moves:                    0.000000
		Percentage of regrow moves:                  25.000000
		Percentage of regrow-in-place moves:         0.000000
		Percentage of regrow-in-plane moves:         0.000000
		Percentage of identity-change moves:         0.000000
		Percentage of swap (insert/delete) moves:    25.000000
		Percentage of Widom insertion moves:         0.000000
		Percentage of surface-area moves:            0.000000
		Percentage of Gibbs particle-transfer moves: 0.000000
		Percentage of Gibbs identity-change moves:   0.000000

	System Moves (percentage per cycle):
		Percentage of parallel-tempering moves:      0.000000
		Percentage of parallel-mol-fraction moves:   0.000000
			   Component A: 0 B: 1
		Percentage of chiral inversion moves:        0.000000
		Percentage of volume-change moves:           100.000000
		Percentage of box-shape-change moves:        0.000000
		Percentage of Gibbs volume-change moves:     0.000000
		Percentage of Hybrid-NVE moves:              100.000000
		Percentage of Hybrid-NPH moves:              0.000000
		Percentage of Hybrid-NPHPR moves:            0.000000
		Percentage of framework-change moves:        0.000000
		Percentage of framework-shift moves:         0.000000

	Moves are restricted: No

	No biased sampling used for this component

	Number of Bonds: 2
	--------------------------------------------
	Bond interaction 0: A=0 B=1 Type:RIGID_BOND
		r_0=1.1600000000       [A]
	Bond interaction 1: A=1 B=2 Type:RIGID_BOND
		r_0=1.1600000000       [A]



	Number of pockets blocked in a unitcell: 0
		Pockets are NOT blocked for this component



Framework Status
===========================================================================
Lowenstein's rule obeyed by framework
	Framework is modelled as: flexible using the model of FlexibleIRMOF-1
	==================================================================================

	Number of Bonds definitions: 5
	--------------------------------------------
	Bond interaction between [Mof_Cc-Mof_H] using bond-type: HARMONIC_BOND (96 bonds)
	  args: 2   arg[0]=366001.131364 arg[1]=0.950000 
	Bond interaction between [Mof_Cc-Mof_Cc] using bond-type: HARMONIC_BOND (48 bonds)
	  args: 2   arg[0]=483413.910475 arg[1]=1.365000 
	Bond interaction between [Mof_Cb-Mof_Cc] using bond-type: HARMONIC_BOND (96 bonds)
	  args: 2   arg[0]=483413.910475 arg[1]=1.365000 
	Bond interaction between [Mof_Ca-Mof_Cb] using bond-type: HARMONIC_BOND (48 bonds)
	  args: 2   arg[0]=353750.919316 arg[1]=1.440000 
	Bond interaction between [Mof_Ob-Mof_Ca] using bond-type: HARMONIC_BOND (96 bonds)
	  args: 2   arg[0]=543840.649284 arg[1]=1.270000 

	Number of Bend definitions: 7
	--------------------------------------------
	Bend interaction between [Mof_Ca-Mof_Cb-Mof_Cc] using bend-type: HARMONIC_BEND (96 bends)
	  args: 2   arg[0]=34926.554321 arg[1]=120.000000 
	Bend interaction between [Mof_Cb-Mof_Cc-Mof_H] using bend-type: HARMONIC_BEND (96 bends)
	  args: 2   arg[0]=37263.155599 arg[1]=120.000000 
	Bend interaction between [Mof_Cc-Mof_Cc-Mof_H] using bend-type: HARMONIC_BEND (96 bends)
	  args: 2   arg[0]=37263.155599 arg[1]=120.000000 
	Bend interaction between [Mof_Cc-Mof_Cb-Mof_Cc] using bend-type: HARMONIC_BEND (48 bends)
	  args: 2   arg[0]=90640.108214 arg[1]=120.000000 
	Bend interaction between [Mof_Cc-Mof_Cc-Mof_Cb] using bend-type: HARMONIC_BEND (96 bends)
	  args: 2   arg[0]=90640.108214 arg[1]=120.000000 
	Bend interaction between [Mof_Ob-Mof_Ca-Mof_Ob] using bend-type: HARMONIC_BEND (48 bends)
	  args: 2   arg[0]=135960.162321 arg[1]=132.000000 
	Bend interaction between [Mof_Ob-Mof_Ca-Mof_Cb] using bend-type: HARMONIC_BEND (96 bends)
	  args: 2   arg[0]=54882.484812 arg[1]=114.000000 

	Number of Torsion definitions: 9
	--------------------------------------------
	Torsion interaction between [Mof_Ob-Mof_Ca-Mof_Cb-Mof_Cc] using torsion-type:TRAPPE_DIHEDRAL (192 torsions)
	  args: 4   arg[0]=0.000000 arg[1]=0.000000 arg[2]=1258.890392 arg[3]=0.000000 
	Torsion interaction between [Mof_Ca-Mof_Cb-Mof_Cc-Mof_H] using torsion-type:TRAPPE_DIHEDRAL (96 torsions)
	  args: 4   arg[0]=0.000000 arg[1]=0.000000 arg[2]=1510.668470 arg[3]=0.000000 
	Torsion interaction between [Mof_Ca-Mof_Cb-Mof_Cc-Mof_Cc] using torsion-type:TRAPPE_DIHEDRAL (96 torsions)
	  args: 4   arg[0]=0.000000 arg[1]=0.000000 arg[2]=1510.668470 arg[3]=0.000000 
	Torsion interaction between [Mof_H-Mof_Cc-Mof_Cc-Mof_H] using torsion-type:TRAPPE_DIHEDRAL (48 torsions)
	  args: 4   arg[0]=0.000000 arg[1]=0.000000 arg[2]=1510.668470 arg[3]=0.000000 
	Torsion interaction between [Mof_H-Mof_Cb-Mof_Cc-Mof_H] using torsion-type:TRAPPE_DIHEDRAL (0 torsions)
	  args: 4   arg[0]=0.000000 arg[1]=0.000000 arg[2]=1510.668470 arg[3]=0.000000 
	Torsion interaction between [Mof_Cb-Mof_Cc-Mof_Cc-Mof_H] using torsion-type:TRAPPE_DIHEDRAL (96 torsions)
	  args: 4   arg[0]=0.000000 arg[1]=0.000000 arg[2]=1510.668470 arg[3]=0.000000 
	Torsion interaction between [Mof_Cb-Mof_Cc-Mof_Cc-Mof_Cb] using torsion-type:TRAPPE_DIHEDRAL (48 torsions)
	  args: 4   arg[0]=0.000000 arg[1]=0.000000 arg[2]=1510.668470 arg[3]=0.000000 
	Torsion interaction between [Mof_H-Mof_Cc-Mof_Cb-Mof_Cc] using torsion-type:TRAPPE_DIHEDRAL (96 torsions)
	  args: 4   arg[0]=0.000000 arg[1]=0.000000 arg[2]=1510.668470 arg[3]=0.000000 
	Torsion interaction between [Mof_Cc-Mof_Cb-Mof_Cc-Mof_Cc] using torsion-type:TRAPPE_DIHEDRAL (96 torsions)
	  args: 4   arg[0]=0.000000 arg[1]=0.000000 arg[2]=1510.668470 arg[3]=0.000000 

	Number of Improper Torsion definitions: 3
	--------------------------------------------
	Improper Torsion interaction between [Mof_Cb-Mof_Ca-Mof_Ob-Mof_Ob] using improper torsion-type:TRAPPE_IMPROPER_DIHEDRAL (48 improper torsions)
	  args: 4   arg[0]=0.000000 arg[1]=0.000000 arg[2]=5035.561567 arg[3]=0.000000 
	Improper Torsion interaction between [Mof_Cc-Mof_Cb-Mof_Cc-Mof_Ca] using improper torsion-type:TRAPPE_IMPROPER_DIHEDRAL (48 improper torsions)
	  args: 4   arg[0]=0.000000 arg[1]=0.000000 arg[2]=5035.561567 arg[3]=0.000000 
	Improper Torsion interaction between [Mof_Cb-Mof_Cc-Mof_Cc-Mof_H] using improper torsion-type:TRAPPE_IMPROPER_DIHEDRAL (96 improper torsions)
	  args: 4   arg[0]=0.000000 arg[1]=0.000000 arg[2]=186.315778 arg[3]=0.000000 


	Number of core/shells:                           0
	Number of bonds:                                 384
	Number of bond-dipoles:                          0
	Number of bends:                                 576
	Number of Urey-Bradleys:                         0
	Number of Inversion bends:                       0
	Number of Torsions:                              768
	Number of Improper Torsions:                     192
	Number of bond-bond cross terms:                 0
	Number of bond-bend cross terms:                 0
	Number of bend-bend cross terms:                 0
	Number of stretch-torsion cross terms:           0
	Number of bend-torsion cross terms:              0

	Number of charges:                               424
	Number of bonddipoles:                           0

	Number of Intra VDW:                             88716
	Number of Intra Coulomb charge-charge:           0
	Number of Intra Coulomb charge-bonddipole:       0
	Number of Intra Coulomb bonddipoles:             0
	Number of excluded Intra VDW:                    960
	Number of excluded intra charge-charge:          960
	Number of excluded intra charge-bonddipole:      0
	Number of excluded intra bonddipole-bonddipole:  0


1-2 Interactions are excluded from VDW and Coulomb interactions
1-3 Interactions are excluded from VDW and Coulomb interactions
1-4 Interactions are *included* in the VDW and Coulomb interactions
Remove12NeighboursFromChargeChargeInteraction no
Remove13NeighboursFromChargeChargeInteraction no
Remove14NeighboursFromChargeChargeInteraction no
Remove11NeighboursFromChargeBondDipoleInteraction no
Remove12NeighboursFromChargeBondDipoleInteraction no
Remove13NeighboursFromChargeBondDipoleInteraction no
Remove14NeighboursFromChargeBondDipoleInteraction no
Remove12NeighboursFromBondDipoleBondDipoleInteraction no
Remove13NeighboursFromBondDipoleBondDipoleInteraction no
Remove14NeighboursFromBondDipoleBondDipoleInteraction no
InternalFrameworkLennardJonesInteractions yes

System Properties
===========================================================================

Helium void fraction:    0.82000000
Excess volume:    0.00000000
Unit cell size: 25.832000 25.832000 25.832000
Cell angles (radians)  alpha: 1.570796 beta: 1.570796 gamma: 1.570796
Cell angles (degrees)  alpha: 90.000000 beta: 90.000000 gamma: 90.000000
Number of unitcells [a]: 1
Number of unitcells [b]: 1
Number of unitcells [c]: 1

RECTANGULAR Boundary conditions: alpha=beta=gamma=90 degrees

Cartesian axis A is collinear with crystallographic axis a
Cartesian axis B is collinear with (axb)xA
Cartesian axis C is collinear with (axb)

lengths of cell vectors:
 25.83200  25.83200  25.83200
cosines of cell angles:
  0.00000   0.00000   0.00000
perpendicular cell widths:
 25.83200  25.83200  25.83200
volume of the cell: 17237.492730368002 (A^3)

Orthogonalization matrix Box
Transforms fractional coordinates abc into orthonormal Cartesian coordinates xyz
Deorthogonalization matrix InverseBox
Transforms orthonormal Cartesian coordinates xyz into fractional coordinates xyz

Box[0]:
	   25.832000000000     0.000000000000     0.000000000000
	    0.000000000000    25.832000000000     0.000000000000
	    0.000000000000     0.000000000000    25.832000000000

Inverse box[0]:
	    0.038711675441    -0.000000000000    -0.000000000000
	    0.000000000000     0.038711675441    -0.000000000000
	    0.000000000000     0.000000000000     0.038711675441


Unitcell box[0]:
	   25.832000000000     0.000000000000     0.000000000000
	    0.000000000000    25.832000000000     0.000000000000
	    0.000000000000     0.000000000000    25.832000000000

Unitcell inverse box[0]:
	    0.038711675441    -0.000000000000    -0.000000000000
	    0.000000000000     0.038711675441    -0.000000000000
	    0.000000000000     0.000000000000     0.038711675441

lengths of cell vectors (inverse box):
  0.03871   0.03871   0.03871
cosines of cell angles (inverse box):
 -0.00000  -0.00000  -0.00000
perpendicular cell widths (inverse):
  0.03871   0.03871   0.03871
volume of the cell: 17237.492730368002 (A^3)

Number of framework atoms: 424
Number of framework atoms in the unit cell: 424
Framework Mass:  6158.594239999981 [g/mol]
Framework Density:   593.275622947865 [kg/m^3]

Number Of Frameworks (per system): 1
----------------------------------------------------------------------
Space group: 0
Framework name: IRMOF-1
Shift: 0.000000 0.000000 0.000000
Number of framework atoms: 424
Number of framework atoms in the unit cell: 424
Framework Mass:  6158.594239999981 [g/mol]
Framework Density:   593.275622947865 [kg/m^3]
Framework has net charge: 0.000000


Current Atom Status
===========================================================================
Number of framework atoms        : 424
Number of cations molecules      : 0
Number of adsorbate molecules    : 0
Component    0 :    0 molecules
Pseudo Atoms    0 [    UNIT]:    0 atoms
Pseudo Atoms    1 [      He]:    0 atoms
Pseudo Atoms    2 [  Mof_Zn]:   32 atoms
Pseudo Atoms    3 [  Mof_Oa]:    8 atoms
Pseudo Atoms    4 [  Mof_Ob]:   96 atoms
Pseudo Atoms    5 [  Mof_Ca]:   48 atoms
Pseudo Atoms    6 [  Mof_Cb]:   48 atoms
Pseudo Atoms    7 [  Mof_Cc]:   96 atoms
Pseudo Atoms    8 [   Mof_H]:   96 atoms
Pseudo Atoms    9 [  Mof_Ar]:    0 atoms
Pseudo Atoms   10 [ CH4_sp3]:    0 atoms
Pseudo Atoms   11 [ CH3_sp3]:    0 atoms
Pseudo Atoms   12 [ CH2_sp3]:    0 atoms
Pseudo Atoms   13 [  CH_sp3]:    0 atoms
Pseudo Atoms   14 [   C_sp3]:    0 atoms
Pseudo Atoms   15 [    H_h2]:    0 atoms
Pseudo Atoms   16 [   H_com]:    0 atoms
Pseudo Atoms   17 [   C_co2]:    0 atoms
Pseudo Atoms   18 [   O_co2]:    0 atoms
Pseudo Atoms   19 [    N_n2]:    0 atoms
Pseudo Atoms   20 [   N_com]:    0 atoms
[...]

Average Adsorbate Improper Torsion energy:
==========================================
	Block[ 0]            0.00000 [K]
	Block[ 1]            0.00000 [K]
	Block[ 2]            0.00000 [K]
	Block[ 3]            0.00000 [K]
	Block[ 4]            0.00000 [K]
	------------------------------------------------------------------------------
	Average              0.00000 [K] +/-            0.00000 [K]

Average Adsorbate Bond-Bond cross term energy:
====================================================
	Block[ 0]            0.00000 [K]
	Block[ 1]            0.00000 [K]
	Block[ 2]            0.00000 [K]
	Block[ 3]            0.00000 [K]
	Block[ 4]            0.00000 [K]
	------------------------------------------------------------------------------
	Average              0.00000 [K] +/-            0.00000 [K]

Average Adsorbate Bend-Bend cross term energy:
==============================================
	Block[ 0]            0.00000 [K]
	Block[ 1]            0.00000 [K]
	Block[ 2]            0.00000 [K]
	Block[ 3]            0.00000 [K]
	Block[ 4]            0.00000 [K]
	------------------------------------------------------------------------------
	Average              0.00000 [K] +/-            0.00000 [K]

Average Adsorbate Bond-Bend cross term energy:
=================================================
	Block[ 0]            0.00000 [K]
	Block[ 1]            0.00000 [K]
	Block[ 2]            0.00000 [K]
	Block[ 3]            0.00000 [K]
	Block[ 4]            0.00000 [K]
	------------------------------------------------------------------------------
	Average              0.00000 [K] +/-            0.00000 [K]

Average Adsorbate Bond-Torsion cross term energy:
=================================================
	Block[ 0]            0.00000 [K]
	Block[ 1]            0.00000 [K]
	Block[ 2]            0.00000 [K]
	Block[ 3]            0.00000 [K]
	Block[ 4]            0.00000 [K]
	------------------------------------------------------------------------------
	Average              0.00000 [K] +/-            0.00000 [K]

Average Adsorbate Bend-Torsion cross term energy:
=================================================
	Block[ 0]            0.00000 [K]
	Block[ 1]            0.00000 [K]
	Block[ 2]            0.00000 [K]
	Block[ 3]            0.00000 [K]
	Block[ 4]            0.00000 [K]
	------------------------------------------------------------------------------
	Average              0.00000 [K] +/-            0.00000 [K]

Average Adsorbate Intra Van der Waals energy:
=============================================
	Block[ 0]            0.00000 [K]
	Block[ 1]            0.00000 [K]
	Block[ 2]            0.00000 [K]
	Block[ 3]            0.00000 [K]
	Block[ 4]            0.00000 [K]
	------------------------------------------------------------------------------
	Average              0.00000 [K] +/-            0.00000 [K]

Average Adsorbate Intra charge-charge Coulomb energy:
=======================================
	Block[ 0]            0.00000 [K]
	Block[ 1]            0.00000 [K]
	Block[ 2]            0.00000 [K]
	Block[ 3]            0.00000 [K]
	Block[ 4]            0.00000 [K]
	------------------------------------------------------------------------------
	Average              0.00000 [K] +/-            0.00000 [K]

Average Adsorbate Intra charge-bonddipole Coulomb energy:
=======================================
	Block[ 0]            0.00000 [K]
	Block[ 1]            0.00000 [K]
	Block[ 2]            0.00000 [K]
	Block[ 3]            0.00000 [K]
	Block[ 4]            0.00000 [K]
	------------------------------------------------------------------------------
	Average              0.00000 [K] +/-            0.00000 [K]

Average Adsorbate Intra bonddipole-bonddipole Coulomb energy:
=======================================
	Block[ 0]            0.00000 [K]
	Block[ 1]            0.00000 [K]
	Block[ 2]            0.00000 [K]
	Block[ 3]            0.00000 [K]
	Block[ 4]            0.00000 [K]
	------------------------------------------------------------------------------
	Average              0.00000 [K] +/-            0.00000 [K]

Average Cation Bond stretch energy:
=================================
	Block[ 0]            0.00000 [K]
	Block[ 1]            0.00000 [K]
	Block[ 2]            0.00000 [K]
	Block[ 3]            0.00000 [K]
	Block[ 4]            0.00000 [K]
	------------------------------------------------------------------------------
	Average              0.00000 [K] +/-            0.00000 [K]

Average Cation UreyBradley stretch energy:
==========================================
	Block[ 0]            0.00000 [K]
	Block[ 1]            0.00000 [K]
	Block[ 2]            0.00000 [K]
	Block[ 3]            0.00000 [K]
	Block[ 4]            0.00000 [K]
	------------------------------------------------------------------------------
	Average              0.00000 [K] +/-            0.00000 [K]

Average Cation Bend angle energy:
=================================
	Block[ 0]            0.00000 [K]
	Block[ 1]            0.00000 [K]
	Block[ 2]            0.00000 [K]
	Block[ 3]            0.00000 [K]
	Block[ 4]            0.00000 [K]
	------------------------------------------------------------------------------
	Average              0.00000 [K] +/-            0.00000 [K]

Average Cation Bend angle inversion energy:
===========================================
	Block[ 0]            0.00000 [K]
	Block[ 1]            0.00000 [K]
	Block[ 2]            0.00000 [K]
	Block[ 3]            0.00000 [K]
	Block[ 4]            0.00000 [K]
	------------------------------------------------------------------------------
	Average              0.00000 [K] +/-            0.00000 [K]

Average Cation Torsion energy:
==============================
	Block[ 0]            0.00000 [K]
	Block[ 1]            0.00000 [K]
	Block[ 2]            0.00000 [K]
	Block[ 3]            0.00000 [K]
	Block[ 4]            0.00000 [K]
	------------------------------------------------------------------------------
	Average              0.00000 [K] +/-            0.00000 [K]

Average Cation Improper Torsion energy:
=======================================
	Block[ 0]            0.00000 [K]
	Block[ 1]            0.00000 [K]
	Block[ 2]            0.00000 [K]
	Block[ 3]            0.00000 [K]
	Block[ 4]            0.00000 [K]
	------------------------------------------------------------------------------
	Average              0.00000 [K] +/-            0.00000 [K]

Average Cation Bond-Bond cross term energy:
=================================================
	Block[ 0]            0.00000 [K]
	Block[ 1]            0.00000 [K]
	Block[ 2]            0.00000 [K]
	Block[ 3]            0.00000 [K]
	Block[ 4]            0.00000 [K]
	------------------------------------------------------------------------------
	Average              0.00000 [K] +/-            0.00000 [K]

Average Cation Bend-Bend cross term energy:
===========================================
	Block[ 0]            0.00000 [K]
	Block[ 1]            0.00000 [K]
	Block[ 2]            0.00000 [K]
	Block[ 3]            0.00000 [K]
	Block[ 4]            0.00000 [K]
	------------------------------------------------------------------------------
	Average              0.00000 [K] +/-            0.00000 [K]

Average Cation Bond-Bend cross term energy:
==============================================
	Block[ 0]            0.00000 [K]
	Block[ 1]            0.00000 [K]
	Block[ 2]            0.00000 [K]
	Block[ 3]            0.00000 [K]
	Block[ 4]            0.00000 [K]
	------------------------------------------------------------------------------
	Average              0.00000 [K] +/-            0.00000 [K]

Average Cation Bond-Torsion cross term energy:
==============================================
	Block[ 0]            0.00000 [K]
	Block[ 1]            0.00000 [K]
	Block[ 2]            0.00000 [K]
	Block[ 3]            0.00000 [K]
	Block[ 4]            0.00000 [K]
	------------------------------------------------------------------------------
	Average              0.00000 [K] +/-            0.00000 [K]

Average Cation Bend-Torsion cross term energy:
==============================================
	Block[ 0]            0.00000 [K]
	Block[ 1]            0.00000 [K]
	Block[ 2]            0.00000 [K]
	Block[ 3]            0.00000 [K]
	Block[ 4]            0.00000 [K]
	------------------------------------------------------------------------------
	Average              0.00000 [K] +/-            0.00000 [K]

Average Cation Intra Van der Waals energy:
==========================================
	Block[ 0]            0.00000 [K]
	Block[ 1]            0.00000 [K]
	Block[ 2]            0.00000 [K]
	Block[ 3]            0.00000 [K]
	Block[ 4]            0.00000 [K]
	------------------------------------------------------------------------------
	Average              0.00000 [K] +/-            0.00000 [K]

Average Cation Intra charge-charge Coulomb energy:
====================================
	Block[ 0]            0.00000 [K]
	Block[ 1]            0.00000 [K]
	Block[ 2]            0.00000 [K]
	Block[ 3]            0.00000 [K]
	Block[ 4]            0.00000 [K]
	------------------------------------------------------------------------------
	Average              0.00000 [K] +/-            0.00000 [K]

Average Cation Intra charge-bonddipole Coulomb energy:
====================================
	Block[ 0]            0.00000 [K]
	Block[ 1]            0.00000 [K]
	Block[ 2]            0.00000 [K]
	Block[ 3]            0.00000 [K]
	Block[ 4]            0.00000 [K]
	------------------------------------------------------------------------------
	Average              0.00000 [K] +/-            0.00000 [K]

Average Cation Intra bonddipole-bonddipole Coulomb energy:
====================================
	Block[ 0]            0.00000 [K]
	Block[ 1]            0.00000 [K]
	Block[ 2]            0.00000 [K]
	Block[ 3]            0.00000 [K]
	Block[ 4]            0.00000 [K]
	------------------------------------------------------------------------------
	Average              0.00000 [K] +/-            0.00000 [K]

Average Host-Host energy:
=========================
	Block[ 0] -4421518.72265     Van der Waals: 661076.27630       Coulomb: -5082594.99895     [K]
	Block[ 1] -4419626.58435     Van der Waals: 658624.28524       Coulomb: -5078250.86959     [K]
	Block[ 2] -4421219.26957     Van der Waals: 660531.24114       Coulomb: -5081750.51071     [K]
	Block[ 3] -4424268.56276     Van der Waals: 661430.17188       Coulomb: -5085698.73464     [K]
	Block[ 4] -4424493.09832     Van der Waals: 660851.30445       Coulomb: -5085344.40277     [K]
	------------------------------------------------------------------------------
	Average   -4422225.24753     Van der Waals: 660502.655801      Coulomb: -5082727.90333     [K]
	      +/- 3750.46704                    +/- 1967.734847             +/- 5417.65256         [K]

Average Adsorbate-Adsorbate energy:
===================================
	Block[ 0] -164.45745         Van der Waals: -126.01373         Coulomb: -38.44371          [K]
	Block[ 1] -172.93564         Van der Waals: -132.61761         Coulomb: -40.31803          [K]
	Block[ 2] -155.16486         Van der Waals: -118.59873         Coulomb: -36.56614          [K]
	Block[ 3] -145.76825         Van der Waals: -112.87585         Coulomb: -32.89241          [K]
	Block[ 4] -165.88965         Van der Waals: -127.53455         Coulomb: -38.35510          [K]
	------------------------------------------------------------------------------
	Average   -160.84317         Van der Waals: -123.528092        Coulomb: -37.31508          [K]
	      +/- 18.85214                      +/- 13.931788               +/- 5.01949            [K]

Average Cation-Cation energy:
=============================
	Block[ 0] 0.00000            Van der Waals: 0.00000            Coulomb: 0.00000            [K]
	Block[ 1] 0.00000            Van der Waals: 0.00000            Coulomb: 0.00000            [K]
	Block[ 2] 0.00000            Van der Waals: 0.00000            Coulomb: 0.00000            [K]
	Block[ 3] 0.00000            Van der Waals: 0.00000            Coulomb: 0.00000            [K]
	Block[ 4] 0.00000            Van der Waals: 0.00000            Coulomb: 0.00000            [K]
	------------------------------------------------------------------------------
	Average   0.00000            Van der Waals: 0.000000           Coulomb: 0.00000            [K]
	      +/- 0.00000                       +/- 0.000000                +/- 0.00000            [K]

Average Host-Adsorbate energy:
==============================
	Block[ 0] -7326.11700        Van der Waals: -6683.95302        Coulomb: -642.16398         [K]
	Block[ 1] -7563.25388        Van der Waals: -6885.93923        Coulomb: -677.31464         [K]
	Block[ 2] -7243.68188        Van der Waals: -6615.04829        Coulomb: -628.63358         [K]
	Block[ 3] -7063.07852        Van der Waals: -6496.52734        Coulomb: -566.55118         [K]
	Block[ 4] -7378.01901        Van der Waals: -6748.09828        Coulomb: -629.92073         [K]
	------------------------------------------------------------------------------
	Average   -7314.83006        Van der Waals: -6685.913233       Coulomb: -628.91682         [K]
	      +/- 327.75055                     +/- 260.415177              +/- 71.60110           [K]

Average Host-Cation energy:
===========================
	Block[ 0] 0.00000            Van der Waals: 0.00000            Coulomb: 0.00000            [K]
	Block[ 1] 0.00000            Van der Waals: 0.00000            Coulomb: 0.00000            [K]
	Block[ 2] 0.00000            Van der Waals: 0.00000            Coulomb: 0.00000            [K]
	Block[ 3] 0.00000            Van der Waals: 0.00000            Coulomb: 0.00000            [K]
	Block[ 4] 0.00000            Van der Waals: 0.00000            Coulomb: 0.00000            [K]
	------------------------------------------------------------------------------
	Average   0.00000            Van der Waals: 0.000000           Coulomb: 0.00000            [K]
	      +/- 0.00000                       +/- 0.000000                +/- 0.00000            [K]

Average Adsorbate-Cation energy:
================================
	Block[ 0] 0.00000            Van der Waals: 0.00000            Coulomb: 0.00000            [K]
	Block[ 1] 0.00000            Van der Waals: 0.00000            Coulomb: 0.00000            [K]
	Block[ 2] 0.00000            Van der Waals: 0.00000            Coulomb: 0.00000            [K]
	Block[ 3] 0.00000            Van der Waals: 0.00000            Coulomb: 0.00000            [K]
	Block[ 4] 0.00000            Van der Waals: 0.00000            Coulomb: 0.00000            [K]
	------------------------------------------------------------------------------
	Average   0.00000            Van der Waals: 0.000000           Coulomb: 0.00000            [K]
	      +/- 0.00000                       +/- 0.000000                +/- 0.00000            [K]

Host polarization energy:
=======================
	Block[ 0]            0.00000 [K]
	Block[ 1]            0.00000 [K]
	Block[ 2]            0.00000 [K]
	Block[ 3]            0.00000 [K]
	Block[ 4]            0.00000 [K]
	------------------------------------------------------------------------------
	Average              0.00000 [K] +/-            0.00000 [K]

Adsorbate polarization energy:
=======================
	Block[ 0]            0.00000 [K]
	Block[ 1]            0.00000 [K]
	Block[ 2]            0.00000 [K]
	Block[ 3]            0.00000 [K]
	Block[ 4]            0.00000 [K]
	------------------------------------------------------------------------------
	Average              0.00000 [K] +/-            0.00000 [K]

Cation polarization energy:
=======================
	Block[ 0]            0.00000 [K]
	Block[ 1]            0.00000 [K]
	Block[ 2]            0.00000 [K]
	Block[ 3]            0.00000 [K]
	Block[ 4]            0.00000 [K]
	------------------------------------------------------------------------------
	Average              0.00000 [K] +/-            0.00000 [K]

Host back-polarization energy:
=======================
	Block[ 0]            0.00000 [K]
	Block[ 1]            0.00000 [K]
	Block[ 2]            0.00000 [K]
	Block[ 3]            0.00000 [K]
	Block[ 4]            0.00000 [K]
	------------------------------------------------------------------------------
	Average              0.00000 [K] +/-            0.00000 [K]

Adsorbate back-polarization energy:
=======================
	Block[ 0]            0.00000 [K]
	Block[ 1]            0.00000 [K]
	Block[ 2]            0.00000 [K]
	Block[ 3]            0.00000 [K]
	Block[ 4]            0.00000 [K]
	------------------------------------------------------------------------------
	Average              0.00000 [K] +/-            0.00000 [K]

Cation back-polarization energy:
=======================
	Block[ 0]            0.00000 [K]
	Block[ 1]            0.00000 [K]
	Block[ 2]            0.00000 [K]
	Block[ 3]            0.00000 [K]
	Block[ 4]            0.00000 [K]
	------------------------------------------------------------------------------
	Average              0.00000 [K] +/-            0.00000 [K]

Tail-correction energy:
=======================
	Block[ 0]           -3.51903 [K]
	Block[ 1]           -3.70559 [K]
	Block[ 2]           -3.42239 [K]
	Block[ 3]           -3.28352 [K]
	Block[ 4]           -3.55750 [K]
	------------------------------------------------------------------------------
	Average             -3.49761 [K] +/-            0.28113 [K]

Total energy:
=============
	Block[ 0]     -4158551.32412 [K]
	Block[ 1]     -4157612.05381 [K]
	Block[ 2]     -4160606.05096 [K]
	Block[ 3]     -4163423.00358 [K]
	Block[ 4]     -4163675.25754 [K]
	------------------------------------------------------------------------------
	Average       -4160773.53800 [K] +/-         4931.60524 [K]

Number of molecules:
====================

Component 0 [CO2]
-------------------------------------------------------------
	Block[ 0] 5.22790            [-]
	Block[ 1] 5.36240            [-]
	Block[ 2] 5.14640            [-]
	Block[ 3] 5.08590            [-]
	Block[ 4] 5.26550            [-]
	------------------------------------------------------------------------------
	Average                                      5.2176200000 +/-       0.1913778838 [-]
	Average loading absolute [molecules/unit cell]        5.2176200000 +/-       0.1913778838 [-]
	Average loading absolute [mol/kg framework]          0.8472095736 +/-       0.0310749298 [-]
	Average loading absolute [milligram/gram framework]         37.2762045866 +/-       1.3672596220 [-]

	Block[ 0] 5.22790            [-]
	Block[ 1] 5.36240            [-]
	Block[ 2] 5.14640            [-]
	Block[ 3] 5.08590            [-]
	Block[ 4] 5.26550            [-]
	------------------------------------------------------------------------------
	Average                                      4.8721759066 +/-       0.1913778838 [-]
	Average loading excess [molecules/unit cell]        4.8721759066 +/-       0.1913778838 [-]
	Average loading excess [mol/kg framework]          0.7911181865 +/-       0.0310749298 [-]
	Average loading excess [milligram/gram framework]         34.8082508647 +/-       1.3672596220 [-]


Average Widom Rosenbluth factor:
================================
	Block[ 0] 0 [-]
	Block[ 1] 0 [-]
	Block[ 2] 0 [-]
	Block[ 3] 0 [-]
	Block[ 4] 0 [-]
	------------------------------------------------------------------------------
	[CO2] Average Widom:   0 +/- 0.000000 [-]

Average Henry coefficient:
==========================
	Block[ 0] 0 [mol/kg/Pa]
	Block[ 1] 0 [mol/kg/Pa]
	Block[ 2] 0 [mol/kg/Pa]
	Block[ 3] 0 [mol/kg/Pa]
	Block[ 4] 0 [mol/kg/Pa]
	------------------------------------------------------------------------------
	[CO2] Average Henry coefficient:  0 +/- 0 [mol/kg/Pa]

Average adsorption energy <U_gh>_1-<U_h>_0 obtained from Widom-insertion:
=========================================================================
