# vtk DataFile Version 1.0
Cube
ASCII

DATASET POLYDATA
POINTS 176 float
9.187438 11.541648 6.894766
1.859682 -1.520860 9.467727
1.859682 18.479140 9.467727
21.859682 -1.520860 9.467727
21.859682 18.479140 9.467727
-0.089671 15.681207 16.272444
19.910329 15.681207 16.272444
0.705388 5.841769 16.969427
20.705388 5.841769 16.969427
16.071127 16.941479 0.592285
16.071127 16.941479 20.592285
16.129801 -1.321446 -0.819124
16.129801 -1.321446 19.180876
16.129801 18.678554 -0.819124
16.129801 18.678554 19.180876
12.243209 11.277992 3.068000
3.242902 -0.784181 -0.738057
3.242902 -0.784181 19.261943
3.242902 19.215819 -0.738057
3.242902 19.215819 19.261943
11.951471 13.960630 4.434843
2.438395 -0.222985 -0.471834
2.438395 -0.222985 19.528166
2.438395 19.777015 -0.471834
2.438395 19.777015 19.528166
1.961487 6.322242 5.686729
21.961487 6.322242 5.686729
6.929553 5.940514 4.009450
13.927621 11.238741 0.150958
13.927621 11.238741 20.150958
1.204665 -1.486748 4.673751
1.204665 18.513252 4.673751
21.204665 -1.486748 4.673751
21.204665 18.513252 4.673751
4.576441 12.389677 5.595550
7.360551 9.243129 17.250305
4.204370 2.705162 13.645807
-1.972248 11.085281 2.306793
18.027752 11.085281 2.306793
15.183654 8.469877 3.884466
6.643682 5.987504 3.046074
-1.771122 10.952521 9.071614
18.228878 10.952521 9.071614
6.052398 14.119302 15.211967
3.728956 11.991957 17.599962
9.051842 9.244201 3.740000
15.422126 8.098111 15.758546
-1.273892 -1.056306 14.394021
-1.273892 18.943694 14.394021
18.726108 -1.056306 14.394021
18.726108 18.943694 14.394021
3.944586 12.954056 9.395980
-1.654220 1.713652 3.351041
-1.654220 21.713652 3.351041
18.345780 1.713652 3.351041
18.345780 21.713652 3.351041
0.688717 13.516400 3.593218
20.688717 13.516400 3.593218
0.466122 9.744393 14.814080
20.466122 9.744393 14.814080
7.859187 9.955321 -1.760753
7.859187 9.955321 18.239247
13.840290 11.925805 14.868345
2.821654 11.332712 1.566832
2.821654 11.332712 21.566832
5.782278 12.384204 5.305696
0.443439 14.629325 9.732650
20.443439 14.629325 9.732650
6.249251 12.740374 -0.714853
6.249251 12.740374 19.285147
11.802826 10.332914 10.045839
0.506024 2.459022 11.401299
20.506024 2.459022 11.401299
4.844402 3.663822 11.039647
3.486874 6.812037 9.006172
0.044860 16.217339 13.736864
20.044860 16.217339 13.736864
-1.952779 14.483739 4.748954
18.047221 14.483739 4.748954
12.426900 2.702402 9.237098
0.903654 17.369195 5.519111
20.903654 17.369195 5.519111
5.583616 9.620264 -0.670046
5.583616 9.620264 19.329954
14.774879 11.207760 3.480315
2.509926 1.868018 10.088712
2.509926 21.868018 10.088712
9.733241 15.919529 10.360520
10.490357 10.723381 3.722368
3.041261 6.114025 9.680393
7.798770 10.985462 14.013899
12.913927 10.979978 12.530582
0.660640 14.262078 -0.412521
0.660640 14.262078 19.587479
20.660640 14.262078 -0.412521
20.660640 14.262078 19.587479
7.996385 6.006815 6.175773
3.537432 -1.495286 2.528511
3.537432 18.504714 2.528511
-0.627733 4.676008 16.664250
19.372267 4.676008 16.664250
11.973371 8.874973 3.922993
7.849996 2.967553 2.655459
0.533464 0.876838 7.647603
0.533464 20.876838 7.647603
20.533464 0.876838 7.647603
20.533464 20.876838 7.647603
5.369264 8.483095 9.182502
11.490997 2.339742 0.784710
11.490997 2.339742 20.784710
17.202091 3.640769 14.186426
2.597776 9.315860 7.176968
-0.018261 -2.004258 4.560007
-0.018261 17.995742 4.560007
19.981739 -2.004258 4.560007
19.981739 17.995742 4.560007
17.047527 8.051020 16.615190
-1.596783 8.581766 0.283788
-1.596783 8.581766 20.283788
18.403217 8.581766 0.283788
18.403217 8.581766 20.283788
10.497405 11.887195 11.646086
4.994783 16.413781 1.122672
4.994783 16.413781 21.122672
0.723136 2.191176 7.013184
20.723136 2.191176 7.013184
12.226480 10.715600 16.865376
12.090147 5.131934 11.822987
11.624669 5.349205 15.298346
-1.438012 17.770374 -0.906998
-1.438012 17.770374 19.093002
18.561988 17.770374 -0.906998
18.561988 17.770374 19.093002
16.438506 1.021629 3.519009
16.438506 21.021629 3.519009
0.222442 13.290902 5.574646
20.222442 13.290902 5.574646
4.179413 11.032102 14.342141
15.782878 10.593974 8.150497
14.347193 16.772529 0.813409
14.347193 16.772529 20.813409
4.549734 4.433901 16.128971
13.689430 13.521872 -0.617869
13.689430 13.521872 19.382131
-0.182816 -1.612322 16.323624
-0.182816 18.387678 16.323624
19.817184 -1.612322 16.323624
19.817184 18.387678 16.323624
-0.027566 10.792397 10.635098
19.972434 10.792397 10.635098
6.684083 17.023659 -0.959078
6.684083 17.023659 19.040922
3.504356 -0.883632 12.522874
3.504356 19.116368 12.522874
13.512017 2.489591 4.216370
16.577531 9.418741 0.321558
16.577531 9.418741 20.321558
13.760421 7.653388 5.607320
10.792403 2.364170 6.759833
17.827477 -0.811833 2.030547
17.827477 19.188167 2.030547
5.073882 2.461944 3.877192
9.662117 -1.426078 15.848037
9.662117 18.573922 15.848037
-0.000054 12.037041 4.349532
19.999946 12.037041 4.349532
13.111329 1.933413 7.014840
13.111329 21.933413 7.014840
10.547196 16.930687 10.745475
13.781743 9.305987 17.317580
15.565254 16.414273 17.160080
6.748433 14.326828 5.689951
0.708580 11.828254 6.624330
20.708580 11.828254 6.624330
16.829182 2.121699 6.181571
14.885172 9.399287 12.793223
LINES 0 0
POINT_DATA 176
SCALARS my_scalars float
LOOKUP_TABLE default
1.7
1.7
1.7
1.7
1.7
1.7
1.7
1.7
1.7
1.7
1.7
1.7
1.7
1.7
1.7
1.7
1.7
1.7
1.7
1.7
1.7
1.7
1.7
1.7
1.7
1.7
1.7
1.7
1.7
1.7
1.7
1.7
1.7
1.7
1.7
1.7
1.7
1.7
1.7
1.7
1.7
1.7
1.7
1.7
1.7
1.7
1.7
1.7
1.7
1.7
1.7
1.7
1.7
1.7
1.7
1.7
1.7
1.7
1.7
1.7
1.7
1.7
1.7
1.7
1.7
1.7
1.7
1.7
1.7
1.7
1.7
1.7
1.7
1.7
1.7
1.7
1.7
1.7
1.7
1.7
1.7
1.7
1.7
1.7
1.7
1.7
1.7
1.7
1.7
1.7
1.55
1.55
1.55
1.55
1.55
1.55
1.55
1.55
1.55
1.55
1.55
1.55
1.55
1.55
1.55
1.55
1.55
1.55
1.55
1.55
1.55
1.55
1.55
1.55
1.55
1.55
1.55
1.55
1.55
1.55
1.55
1.55
1.55
1.55
1.55
1.55
1.55
1.55
1.55
1.55
1.55
1.55
1.55
1.55
1.55
1.55
1.55
1.55
1.55
1.55
1.55
1.55
1.55
1.55
1.55
1.55
1.55
1.55
1.55
1.55
1.55
1.55
1.55
1.55
1.55
1.55
1.55
1.55
1.55
1.55
1.55
1.55
1.55
1.55
1.55
1.55
1.55
1.55
1.55
1.55
1.55
1.55
1.55
1.55
1.55
1.55
VECTORS vectors float
0.3125 0 0
0.3125 0 0
0.3125 0 0
0.3125 0 0
0.3125 0 0
0.3125 0 0
0.3125 0 0
0.3125 0 0
0.3125 0 0
0.3125 0 0
0.3125 0 0
0.3125 0 0
0.3125 0 0
0.3125 0 0
0.3125 0 0
0.3125 0 0
0.3125 0 0
0.3125 0 0
0.3125 0 0
0.3125 0 0
0.3125 0 0
0.3125 0 0
0.3125 0 0
0.3125 0 0
0.3125 0 0
0.3125 0 0
0.3125 0 0
0.3125 0 0
0.3125 0 0
0.3125 0 0
0.3125 0 0
0.3125 0 0
0.3125 0 0
0.3125 0 0
0.3125 0 0
0.3125 0 0
0.3125 0 0
0.3125 0 0
0.3125 0 0
0.3125 0 0
0.3125 0 0
0.3125 0 0
0.3125 0 0
0.3125 0 0
0.3125 0 0
0.3125 0 0
0.3125 0 0
0.3125 0 0
0.3125 0 0
0.3125 0 0
0.3125 0 0
0.3125 0 0
0.3125 0 0
0.3125 0 0
0.3125 0 0
0.3125 0 0
0.3125 0 0
0.3125 0 0
0.3125 0 0
0.3125 0 0
0.3125 0 0
0.3125 0 0
0.3125 0 0
0.3125 0 0
0.3125 0 0
0.3125 0 0
0.3125 0 0
0.3125 0 0
0.3125 0 0
0.3125 0 0
0.3125 0 0
0.3125 0 0
0.3125 0 0
0.3125 0 0
0.3125 0 0
0.3125 0 0
0.3125 0 0
0.3125 0 0
0.3125 0 0
0.3125 0 0
0.3125 0 0
0.3125 0 0
0.3125 0 0
0.3125 0 0
0.3125 0 0
0.3125 0 0
0.3125 0 0
0.3125 0 0
0.3125 0 0
0.3125 0 0
0 0 0
0 0 0
0 0 0
0 0 0
0 0 0
0 0 0
0 0 0
0 0 0
0 0 0
0 0 0
0 0 0
0 0 0
0 0 0
0 0 0
0 0 0
0 0 0
0 0 0
0 0 0
0 0 0
0 0 0
0 0 0
0 0 0
0 0 0
0 0 0
0 0 0
0 0 0
0 0 0
0 0 0
0 0 0
0 0 0
0 0 0
0 0 0
0 0 0
0 0 0
0 0 0
0 0 0
0 0 0
0 0 0
0 0 0
0 0 0
0 0 0
0 0 0
0 0 0
0 0 0
0 0 0
0 0 0
0 0 0
0 0 0
0 0 0
0 0 0
0 0 0
0 0 0
0 0 0
0 0 0
0 0 0
0 0 0
0 0 0
0 0 0
0 0 0
0 0 0
0 0 0
0 0 0
0 0 0
0 0 0
0 0 0
0 0 0
0 0 0
0 0 0
0 0 0
0 0 0
0 0 0
0 0 0
0 0 0
0 0 0
0 0 0
0 0 0
0 0 0
0 0 0
0 0 0
0 0 0
0 0 0
0 0 0
0 0 0
0 0 0
0 0 0
0 0 0
