# vtk DataFile Version 1.0
Cube
ASCII

DATASET POLYDATA
POINTS 10 float
4.393823 4.717573 0.000000
3.854330 4.275217 0.836176
5.099026 5.458292 0.374092
4.935121 3.938957 -0.535421
3.686815 5.197825 -0.674847
3.722469 3.996751 9.407570
3.182976 3.554395 10.243746
4.427672 4.737470 9.781662
4.263767 3.218135 8.872150
3.015460 4.477003 8.732723
LINES 8 24
2 0 1
2 0 2
2 0 3
2 0 4
2 5 6
2 5 7
2 5 8
2 5 9
POINT_DATA 10
SCALARS my_scalars float
LOOKUP_TABLE default
1.7
1.09
1.09
1.09
1.09
1.7
1.09
1.09
1.09
1.09
VECTORS vectors float
0.3125 0 0
0.25 0 0
0.25 0 0
0.25 0 0
0.25 0 0
0.3125 0 0
0.25 0 0
0.25 0 0
0.25 0 0
0.25 0 0
