# vtk DataFile Version 1.0
Cube
ASCII

DATASET POLYDATA
POINTS 42 float
0.166522 2.512633 8.225039
2.028385 6.920679 0.000000
1.357031 6.199857 9.407570
0.518600 7.653802 4.703785
1.600028 1.717923 8.400960
-0.035095 -0.037681 3.003837
7.977025 0.734545 3.133662
-0.671354 1.985744 6.900453
8.787646 1.985744 6.900453
4.058146 0.808667 7.990790
8.110807 2.181195 2.354715
2.992867 0.177772 0.191914
2.494477 8.174687 0.971802
6.759261 -0.192099 2.507118
6.087906 9.243046 2.507118
7.597692 4.609017 1.416780
1.600028 8.245163 2.354715
-0.035095 2.997937 0.191914
5.621815 8.369887 1.182532
6.516263 6.996400 1.006610
8.151387 8.752005 6.403733
0.139267 5.645938 8.435768
0.005485 6.533128 7.052856
5.123424 8.536551 9.215656
7.949770 0.705282 6.273909
6.516263 0.469161 7.052856
8.151387 5.716387 9.215656
7.949770 6.201691 1.182532
6.759261 2.514466 0.000000
6.087906 1.793645 9.407570
7.597692 1.060522 4.703785
0.139267 7.979779 6.273909
-0.671354 6.728580 2.507118
8.787646 6.728580 2.507118
4.058146 7.905657 1.416780
5.621815 0.539637 8.435768
2.028385 -0.528723 6.900453
1.357031 8.906423 6.900453
0.518600 4.105307 7.990790
2.494477 0.344436 8.225039
7.977025 3.068386 0.971802
0.166522 8.009042 3.133662
POINT_DATA 42
SCALARS my_scalars float
LOOKUP_TABLE default
2.1
1.52
1.52
1.52
1.52
1.52
2.1
1.52
1.52
1.52
1.52
1.52
2.1
1.52
1.52
1.52
1.52
1.52
2.1
1.52
1.52
2.1
1.52
1.52
2.1
1.52
1.52
2.1
1.52
1.52
1.52
2.1
1.52
1.52
1.52
2.1
1.52
1.52
1.52
2.1
2.1
2.1
VECTORS vectors float
0.125 0 0
0.03125 0 0
0.03125 0 0
0.03125 0 0
0.03125 0 0
0.03125 0 0
0.125 0 0
0.03125 0 0
0.03125 0 0
0.03125 0 0
0.03125 0 0
0.03125 0 0
0.125 0 0
0.03125 0 0
0.03125 0 0
0.03125 0 0
0.03125 0 0
0.03125 0 0
0.125 0 0
0.03125 0 0
0.03125 0 0
0.125 0 0
0.03125 0 0
0.03125 0 0
0.125 0 0
0.03125 0 0
0.03125 0 0
0.125 0 0
0.03125 0 0
0.03125 0 0
0.03125 0 0
0.125 0 0
0.03125 0 0
0.03125 0 0
0.03125 0 0
0.125 0 0
0.03125 0 0
0.03125 0 0
0.03125 0 0
0.125 0 0
0.125 0 0
0.125 0 0
