# vtk DataFile Version 1.0
Cube
ASCII

DATASET POLYDATA
POINTS 32 float
-0.500000 0.000000 0.000000
-0.500000 0.000000 10.000000
-0.500000 10.000000 0.000000
-0.500000 10.000000 10.000000
9.500000 0.000000 0.000000
9.500000 0.000000 10.000000
9.500000 10.000000 0.000000
9.500000 10.000000 10.000000
0.500000 0.000000 0.000000
0.500000 0.000000 10.000000
0.500000 10.000000 0.000000
0.500000 10.000000 10.000000
10.500000 0.000000 0.000000
10.500000 0.000000 10.000000
10.500000 10.000000 0.000000
10.500000 10.000000 10.000000
-0.500000 1.000000 0.000000
-0.500000 1.000000 10.000000
-0.500000 11.000000 0.000000
-0.500000 11.000000 10.000000
9.500000 1.000000 0.000000
9.500000 1.000000 10.000000
9.500000 11.000000 0.000000
9.500000 11.000000 10.000000
0.500000 1.000000 1.000000
0.500000 1.000000 11.000000
0.500000 11.000000 1.000000
0.500000 11.000000 11.000000
10.500000 1.000000 1.000000
10.500000 1.000000 11.000000
10.500000 11.000000 1.000000
10.500000 11.000000 11.000000
LINES 0 0
POINT_DATA 32
SCALARS my_scalars float
LOOKUP_TABLE default
1.4
1.4
1.4
1.4
1.4
1.4
1.4
1.4
1.88
1.88
1.88
1.88
1.88
1.88
1.88
1.88
1.88
1.88
1.88
1.88
1.88
1.88
1.88
1.88
1.88
1.88
1.88
1.88
1.88
1.88
1.88
1.88
VECTORS vectors float
0.4375 0 0
0.4375 0 0
0.4375 0 0
0.4375 0 0
0.4375 0 0
0.4375 0 0
0.4375 0 0
0.4375 0 0
0.4375 0 0
0.4375 0 0
0.4375 0 0
0.4375 0 0
0.4375 0 0
0.4375 0 0
0.4375 0 0
0.4375 0 0
0.4375 0 0
0.4375 0 0
0.4375 0 0
0.4375 0 0
0.4375 0 0
0.4375 0 0
0.4375 0 0
0.4375 0 0
0.4375 0 0
0.4375 0 0
0.4375 0 0
0.4375 0 0
0.4375 0 0
0.4375 0 0
0.4375 0 0
0.4375 0 0
