Compiler and run-time data
===========================================================================
RASPA 1.6-2
Compiled as a 64-bits application
Compiler: gcc 4.2.1 (Based on Apple Inc. build 5658) (LLVM build 2336.11.00)
Compile Date = Sep  1 2012, Compile Time = 19:19:15

Thu Sep 20 20:03:35 2012
Simulation started on Thursday, September 20.
The start time was 08:03 PM.

Cpu data:    x86_64
Cpu Model:   MacPro5,1
Host name:   server.darkwing.nl
OS release:  12.1.0
OS type:     Darwin
OS version:  12B19


Simulation
===========================================================================
Dimensions: 3
Random number seed: 1348164214
RASPA directory set to: /Users/dubbelda/RASPA/simulations/
String appended to output-files: 
Number of cycles: 10000
Number of initializing cycles: 5000
Number of equilibration cycles: 0
Print every: 100
Triclinic boundary condition applied
Timestep: 0.000500
Initialization Ensemble: NVE (constant number of particles N, constant volume V, constant energy E)
Production run ensemble: NVE (constant number of particles N, constant volume V, constant energy E)
	Degrees of freedom:                        192
	Translational Degrees of freedom:          192
	Rotational Degrees of freedom:             0
	Degrees of freedom Framework:              0


Mutual consistent basic set of units:
======================================
Unit of temperature: Kelvin
Unit of length:      1e-10 [m]
Unit of time:        1e-12 [s]
Unit of mass:        1.66054e-27 [kg]
Unit of charge:      1.60218e-19 [C/particle]

Derived units and their conversion factors:
===========================================
Unit of energy:              1.66054e-23 [J]
Unit of force:               1.66054e-13 [N]
Unit of pressure:            1.66054e+07 [Pa]
Unit of velocity:            100 [m/s]
Unit of acceleration:        1e-08 [m^2/s]
Unit of diffusion:           1e-08 [m^2/s]
Unit of dipole moment:       1.60218e-29 [C.m]
Unit of electric potential:  0.000103643 [V]
Unit of electric field:      1.03643e+06 [V]
Unit of polarizability:      1.54587e-35 [-]
Unit of Coulomb potential:   167101.0800066561  [K]
Unit of dielectric constant: 0.0000154587       [s^2 C^2/(kg m^3)]
Unit of wave vectors:        5.3088374589       [cm^1]
Boltzmann constant:          0.8314464919       [-]

Internal conversion factors:
===========================================
Energy to Kelvin:                                    1.2027242847
FH correction factor                                 2.0211930949
Heat capacity conversion factor:                    10.0000088723
From Debye to internal units:                        4.8032067991
Isothermal compressibility conversion factor:        0.0000000602

Energy conversion factors:
===========================================
From mdyne/A to kcal/mol/A^2:           143.933
From mdyne/A to kj/mol/A^2:             602.214
From mdyne/A to K/A^2:                  72429.7
From mdyne A/rad^2 to kcal/mol/deg^2:   0.0438444


Properties computed
===========================================================================
Movies: no
Radial Distribution Function: no
Number of molecules GCMC histogram: no
Histogram of the molecule positions: no
Free energy profiles: no
Pore Size Distribution Function: no
End-to-end distance: no
Histogram of the energy of the system: no
Compute thermodynamic factors: no
Framework spacing histograms: no
Residence times histograms: no
Distance histograms: no
Bend Angle histograms: no
Dihedral angle histograms: no
Angle between planes histograms: no
Molecule properties: no
Infra-red spectra: no
Mean-squared displacement using modified order-N algorithm: no
Velocity-autocorrelation function modified order-N algorithm: no
Rotational velocity-autocorrelation function modified order-N algorithm: no
Molecular orientation-autocorrelation function modified order-N algorithm: no
Mean-squared displacement (conventional algorithm): no
Velocity-autocorrelation function (conventional algorithm): no
3D density grid for adsorbates: no
Compute cation an/or adsorption sites: no
dcTST snapshots: no
Compute pressure and stress: yes


VTK
===========================================================================
VTK fractional-range position framework atoms: [-0.001000,1.001000] [-0.001000,1.001000] [-0.001000,1.001000]
VTK fractional-range position framework bonds: [-0.151000,1.151000] [-0.151000,1.151000] [-0.151000,1.151000]
VTK fractional-range com-position adsorbate molecules: [-0.101000,1.101000] [-0.101000,1.101000] [-0.101000,1.101000]
VTK fractional-range com-position cation molecules: [-0.101000,1.101000] [-0.101000,1.101000] [-0.101000,1.101000]
	3D free energy grid made for the full simulation-cell


Thermo/Baro-stat NHC parameters
===========================================================================
External temperature: 185.000000 [K]
Beta: 0.006501 [energy unit]
External Pressure: 0.000000 [Pa]


Thermostat chain-length: 3
Timescale parameter for thermostat: 0.150000 [ps]
Barostat chain-length:   3
Timescale parameter for barostat:   0.150000 [ps]

Number of Yoshida-Suzuki decomposition steps: 5
Number of respa steps: 5


Method and settings for electrostatics
===============================================================================
Dielectric constant of the medium : 1.000000
Charge from charge-equilibration: no
Ewald summation is used (exact solution of a periodic system)
Relative precision                : 1e-06
Alpha convergence parameter       : 0.265058
kvec (x,y,z)                      : 22 22 22


Rattle parameters
===========================================================================
Distance constraint type: r^2-r^2_0
Bend angle constraint type: theta-theta_0
Dihedral angle constraint type: phi-phi_0
Inversion-bend angle constraint type: chi-chi_0
Out-of-plane distance constraint type: r-r_0


Spectra parameters
===========================================================================
Compute normal modes: no


Minimization parameters
===========================================================================
Generalized coordinates are: Cartesian center-of-mass, elements of the orientational matrix p1,p2,p3 and strain
Potential derivatives are evaluated: analytically
Translation of the system is removed from the generalized Hessian: no
Rotation of the system is removed from the generalized Hessian: no
Maximum step-length: 0.3
Convergence factor: 1
Maximum number of minimization steps: 10000
Use gradients in the line-minimizations: yes
RMS gradient tolerance: 1e-06
Maximum gradient tolerance: 1e-06

Distance constraints: 0
Angle constraints: 0
Dihedral constraints: 0

Improper dihedral constraints: 0

Inversion-bend constraints: 0

Out-of-plane constraints: 0

Harmonic distance constraints: 0
Harmonic angle constraints: 0
Harmonic dihedral constraints: 0

Dihedral mid-point measurements: 0

All framework atoms are fixed

Fixed adsorbate atoms:  
Fixed adsorbate groups (center-of-mass):  
Fixed adsorbate groups (orientation):  

Fixed cation atoms:  
Fixed cation groups (center-of-mass):  
Fixed cation groups (orientation):  


dcTST parameters
===========================================================================
Free energy profiles computed: no
Free energy profiles written every 5000 cycles
Free energy mapping: mapped to a,b,c-coordinates
BarrierPosition:       0.0000000000       0.0000000000       0.0000000000
BarrierNormal:         0.0000000000       0.0000000000       0.0000000000
Start with a molecule on top of the barrier: no
Maximum distance to barrier (e.g. distance to minumum free energy):       0.0000000000 [A]
Maximum trajectory time:      10.0000000000 [ps]
Each configuration is used with 5 different initial velocities


Cbmc parameters
===========================================================================
Biasing method: using only the VDW part
Number of trial positions:                             10
Number of trial positions coupled Torsion-selection:   100
Number of trial position for the first bead:           10
Number of trial moves per open bead:                   150
Target acceptance ratio small-mc scheme:               0.400000
Energy overlap criteria:                               100000
Minimal Rosenbluth factor:                             1e-150


Pseudo atoms: 10
===========================================================================
Pseudo Atom[   0] Name UNIT     Oxidation: -        Element: H    pdb-name: H    Scat. Types:   1   1 Mass=1.000000000  B-factor:1.000   
                 Charge=1.000000000   Polarization=0.000000000  [A^3] (considered a charged atom and no polarization)  Interactions:  no
                 Anisotropic factor:    0.000 [-] (Absolute), Radius:    1.000 [A]
Pseudo Atom[   1] Name CH4_sp3  Oxidation: -        Element: C    pdb-name: C    Scat. Types:   7   6 Mass=16.042460000 B-factor:1.000   
                 Charge=0.000000000   Polarization=0.000000000  [A^3] (considered a chargeless atom and no polarization)  Interactions: yes
                 Anisotropic factor:    0.000 [-] (Absolute), Radius:    1.000 [A]
Pseudo Atom[   2] Name CH3_sp3  Oxidation: -        Element: C    pdb-name: C    Scat. Types:   7   6 Mass=15.034520000 B-factor:1.000   
                 Charge=0.000000000   Polarization=0.000000000  [A^3] (considered a chargeless atom and no polarization)  Interactions: yes
                 Anisotropic factor:    0.000 [-] (Absolute), Radius:    1.000 [A]
Pseudo Atom[   3] Name CH2_sp3  Oxidation: -        Element: C    pdb-name: C    Scat. Types:   7   6 Mass=14.026580000 B-factor:1.000   
                 Charge=0.000000000   Polarization=0.000000000  [A^3] (considered a chargeless atom and no polarization)  Interactions: yes
                 Anisotropic factor:    0.000 [-] (Absolute), Radius:    1.000 [A]
Pseudo Atom[   4] Name CH_sp3   Oxidation: -        Element: C    pdb-name: C    Scat. Types:   7   6 Mass=13.018640000 B-factor:1.000   
                 Charge=0.000000000   Polarization=0.000000000  [A^3] (considered a chargeless atom and no polarization)  Interactions: yes
                 Anisotropic factor:    0.000 [-] (Absolute), Radius:    1.000 [A]
Pseudo Atom[   5] Name C_sp3    Oxidation: -        Element: C    pdb-name: C    Scat. Types:   7   6 Mass=12.000000000 B-factor:1.000   
                 Charge=0.000000000   Polarization=0.000000000  [A^3] (considered a chargeless atom and no polarization)  Interactions: yes
                 Anisotropic factor:    0.000 [-] (Absolute), Radius:    1.000 [A]
Pseudo Atom[   6] Name C_co2    Oxidation: -        Element: C    pdb-name: C    Scat. Types:   7   6 Mass=12.010700000 B-factor:1.000   
                 Charge=0.700000000   Polarization=1.508000000  [A^3] (considered a charged atom and polarizable)  Interactions: yes
                 Anisotropic factor:    0.000 [-] (Relative), Radius:    0.720 [A]
Pseudo Atom[   7] Name O_co2    Oxidation: -        Element: O    pdb-name: O    Scat. Types:   9   8 Mass=15.999400000 B-factor:1.000   
                 Charge=-0.350000000  Polarization=0.947500000  [A^3] (considered a charged atom and polarizable)  Interactions: yes
                 Anisotropic factor:    0.000 [-] (Relative), Radius:    0.680 [A]
Pseudo Atom[   8] Name N_n2     Oxidation: -        Element: N    pdb-name: N    Scat. Types:   8   7 Mass=14.006740000 B-factor:1.000   
                 Charge=-0.482000000  Polarization=0.000000000  [A^3] (considered a charged atom and no polarization)  Interactions: yes
                 Anisotropic factor:    0.000 [-] (Relative), Radius:    0.700 [A]
Pseudo Atom[   9] Name N_com    Oxidation: -        Element: N    pdb-name: N    Scat. Types:   8   7 Mass=0.000000000  B-factor:1.000   
                 Charge=0.964000000   Polarization=0.000000000  [A^3] (considered a charged atom and no polarization)  Interactions:  no
                 Anisotropic factor:    0.000 [-] (Relative), Radius:    0.700 [A]


Forcefield: TraPPE
===========================================================================
CutOff VDW : 12.000000 (144.000000)
CutOff VDW switching on: 10.800000 (116.640000)
CutOff charge-charge : 12.000000 (144.000000)
CutOff charge-charge switching on: 7.800000 (60.840000)
CutOff charge-bonddipole : 12.000000 (144.000000)
CutOff charge-bondipole switching on: 8.400000 (70.560000)
CutOff bonddipole-bonddipole : 12.000000 (144.000000)
CutOff bonddipole-bondipole switching on: 9.000000 (81.000000)
Polarization is neglected
TailCorrections are used
All potentials are unshifted !!!!!!

General mixing rule: Lorentz-Berthelot mixing rules are used FIRST for cross terms
0 cross terms are overwritten using the individual mixing rules from the file 'force_field_mixing_rules.def'
and then 0 terms are overwritten using the specific interactions from the file 'force_field.def'

The force field and all the interactions:
CH4_sp3 - CH4_sp3 [LENNARD_JONES] p_0/k_B: 148.00000 [K], p_1: 3.73000 [A], shift/k_B:   0.00000000 [K], tailcorrection: yes
CH4_sp3 - CH3_sp3 [LENNARD_JONES] p_0/k_B: 120.43255 [K], p_1: 3.74000 [A], shift/k_B:   0.00000000 [K], tailcorrection: yes
CH4_sp3 - CH2_sp3 [LENNARD_JONES] p_0/k_B:  82.51061 [K], p_1: 3.84000 [A], shift/k_B:   0.00000000 [K], tailcorrection: yes
CH4_sp3 -  CH_sp3 [LENNARD_JONES] p_0/k_B:  38.47077 [K], p_1: 4.20500 [A], shift/k_B:   0.00000000 [K], tailcorrection: yes
CH4_sp3 -   C_sp3 [LENNARD_JONES] p_0/k_B:   8.60233 [K], p_1: 5.06500 [A], shift/k_B:   0.00000000 [K], tailcorrection: yes
CH4_sp3 -   C_co2 [LENNARD_JONES] p_0/k_B:  63.21392 [K], p_1: 3.26500 [A], shift/k_B:   0.00000000 [K], tailcorrection: yes
CH4_sp3 -   O_co2 [LENNARD_JONES] p_0/k_B: 108.12955 [K], p_1: 3.39000 [A], shift/k_B:   0.00000000 [K], tailcorrection: yes
CH4_sp3 -    N_n2 [LENNARD_JONES] p_0/k_B:  72.99315 [K], p_1: 3.52000 [A], shift/k_B:   0.00000000 [K], tailcorrection: yes
CH3_sp3 - CH3_sp3 [LENNARD_JONES] p_0/k_B:  98.00000 [K], p_1: 3.75000 [A], shift/k_B:   0.00000000 [K], tailcorrection: yes
CH3_sp3 - CH2_sp3 [LENNARD_JONES] p_0/k_B:  67.14164 [K], p_1: 3.85000 [A], shift/k_B:   0.00000000 [K], tailcorrection: yes
CH3_sp3 -  CH_sp3 [LENNARD_JONES] p_0/k_B:  31.30495 [K], p_1: 4.21500 [A], shift/k_B:   0.00000000 [K], tailcorrection: yes
CH3_sp3 -   C_sp3 [LENNARD_JONES] p_0/k_B:   7.00000 [K], p_1: 5.07500 [A], shift/k_B:   0.00000000 [K], tailcorrection: yes
CH3_sp3 -   C_co2 [LENNARD_JONES] p_0/k_B:  51.43928 [K], p_1: 3.27500 [A], shift/k_B:   0.00000000 [K], tailcorrection: yes
CH3_sp3 -   O_co2 [LENNARD_JONES] p_0/k_B:  87.98864 [K], p_1: 3.40000 [A], shift/k_B:   0.00000000 [K], tailcorrection: yes
CH3_sp3 -    N_n2 [LENNARD_JONES] p_0/k_B:  59.39697 [K], p_1: 3.53000 [A], shift/k_B:   0.00000000 [K], tailcorrection: yes
CH2_sp3 - CH2_sp3 [LENNARD_JONES] p_0/k_B:  46.00000 [K], p_1: 3.95000 [A], shift/k_B:   0.00000000 [K], tailcorrection: yes
CH2_sp3 -  CH_sp3 [LENNARD_JONES] p_0/k_B:  21.44761 [K], p_1: 4.31500 [A], shift/k_B:   0.00000000 [K], tailcorrection: yes
CH2_sp3 -   C_sp3 [LENNARD_JONES] p_0/k_B:   4.79583 [K], p_1: 5.17500 [A], shift/k_B:   0.00000000 [K], tailcorrection: yes
CH2_sp3 -   C_co2 [LENNARD_JONES] p_0/k_B:  35.24202 [K], p_1: 3.37500 [A], shift/k_B:   0.00000000 [K], tailcorrection: yes
CH2_sp3 -   O_co2 [LENNARD_JONES] p_0/k_B:  60.28267 [K], p_1: 3.50000 [A], shift/k_B:   0.00000000 [K], tailcorrection: yes
CH2_sp3 -    N_n2 [LENNARD_JONES] p_0/k_B:  40.69398 [K], p_1: 3.63000 [A], shift/k_B:   0.00000000 [K], tailcorrection: yes
 CH_sp3 -  CH_sp3 [LENNARD_JONES] p_0/k_B:  10.00000 [K], p_1: 4.68000 [A], shift/k_B:   0.00000000 [K], tailcorrection: yes
 CH_sp3 -   C_sp3 [LENNARD_JONES] p_0/k_B:   2.23607 [K], p_1: 5.54000 [A], shift/k_B:   0.00000000 [K], tailcorrection: yes
 CH_sp3 -   C_co2 [LENNARD_JONES] p_0/k_B:  16.43168 [K], p_1: 3.74000 [A], shift/k_B:   0.00000000 [K], tailcorrection: yes
 CH_sp3 -   O_co2 [LENNARD_JONES] p_0/k_B:  28.10694 [K], p_1: 3.86500 [A], shift/k_B:   0.00000000 [K], tailcorrection: yes
 CH_sp3 -    N_n2 [LENNARD_JONES] p_0/k_B:  18.97367 [K], p_1: 3.99500 [A], shift/k_B:   0.00000000 [K], tailcorrection: yes
  C_sp3 -   C_sp3 [LENNARD_JONES] p_0/k_B:   0.50000 [K], p_1: 6.40000 [A], shift/k_B:   0.00000000 [K], tailcorrection: yes
  C_sp3 -   C_co2 [LENNARD_JONES] p_0/k_B:   3.67423 [K], p_1: 4.60000 [A], shift/k_B:   0.00000000 [K], tailcorrection: yes
  C_sp3 -   O_co2 [LENNARD_JONES] p_0/k_B:   6.28490 [K], p_1: 4.72500 [A], shift/k_B:   0.00000000 [K], tailcorrection: yes
  C_sp3 -    N_n2 [LENNARD_JONES] p_0/k_B:   4.24264 [K], p_1: 4.85500 [A], shift/k_B:   0.00000000 [K], tailcorrection: yes
  C_co2 -   C_co2 [LENNARD_JONES] p_0/k_B:  27.00000 [K], p_1: 2.80000 [A], shift/k_B:   0.00000000 [K], tailcorrection: yes
  C_co2 -   O_co2 [LENNARD_JONES] p_0/k_B:  46.18441 [K], p_1: 2.92500 [A], shift/k_B:   0.00000000 [K], tailcorrection: yes
  C_co2 -    N_n2 [LENNARD_JONES] p_0/k_B:  31.17691 [K], p_1: 3.05500 [A], shift/k_B:   0.00000000 [K], tailcorrection: yes
  O_co2 -   O_co2 [LENNARD_JONES] p_0/k_B:  79.00000 [K], p_1: 3.05000 [A], shift/k_B:   0.00000000 [K], tailcorrection: yes
  O_co2 -    N_n2 [LENNARD_JONES] p_0/k_B:  53.32917 [K], p_1: 3.18000 [A], shift/k_B:   0.00000000 [K], tailcorrection: yes
   N_n2 -    N_n2 [LENNARD_JONES] p_0/k_B:  36.00000 [K], p_1: 3.31000 [A], shift/k_B:   0.00000000 [K], tailcorrection: yes


MoleculeDefinitions:
===========================================================================
Component 0 [ethane] (Adsorbate molecule)

	MoleculeDefinitions: TraPPE
	Component contains no atoms with charge
	Component contains no atoms with point dipoles (polarization)
	Component has a net charge of 0.000000

	Ideal chain Rosenbluth weight: 1.000000
	Ideal chain total energy: 0.000000

	Critical temparure [K]: 305.330000
	Critical pressure [Pa]: 4871800.000000
	Acentric factor [-]: 0.099300

	Vapour=stable, Liquid=metastable

	MolFraction:           1.0000000000 [-]
	Compressibility:       0.0000000000 [-]

	Density of the bulk fluid phase:       0.0000000000 [kg/m^3]

	Amount of excess molecules:       0.0000000000 [-]

	Conversion factor molecules/unit cell -> mol/kg:                inf [-]
	Conversion factor molecules/unit cell -> gr/gr:                inf [-]
	Conversion factor molecules/unit cell -> cm^3 STP/gr:                inf [-]
	Conversion factor molecules/unit cell -> cm^3 STP/cm^3:       0.0726938960 [-]
	Conversion factor mol/kg -> cm^3 STP/gr:      22.4139757476 [-]
	Conversion factor mol/kg -> cm^3 STP/cm^3:       0.0000000000 [-]

	Partial pressure: -16605402.00000000000000 [Pa]
	                    -124540.51499999999942 [Torr]
	                       -166.05402000000001 [bar]
	                       -163.88257586972614 [atm]

	Fugacity coefficient:      -1.0000000000 [-]

	Partial fugacity:  16605402.00000000000000 [Pa]
	                     124540.51499999999942 [Torr]
	                        166.05402000000001 [bar]
	                        163.88257586972614 [atm]

	Molecule contains 2 number of atoms
		atom:    0  is of type:    2 [   CH3_sp3] (group: 0)
		atom:    1  is of type:    2 [   CH3_sp3] (group: 0)

	Molecule contains 0 chirality centers

	Molecule contains 1 number of groups

		group: 0 containing: 2 elements
		-------------------------------------------------
		the group is modelled as flexible, i.e. no constraints
		Mass: 30.069040 [a.u.]
		Mass: 2.536749 [kg/m^3]

		Rotational Degrees of freedom: 0
		Diagonalized inertia vector:       0.0000000000
		                                   0.0000000000
		                                   0.0000000000
		element: 0 atom: 0 [   CH3_sp3] Charge:  0.000000 Anisotropy: 0.000000 Connectivity: 1 (1 )
		element: 1 atom: 1 [   CH3_sp3] Charge:  0.000000 Anisotropy: 0.000000 Connectivity: 1 (0 )

		Dipole:           0.0000000000 [D]
		Quadrupole:       0.0000000000       0.0000000000       0.0000000000 [D Angstrom]
		Quadrupole tensor [D Angstrom]
				       0.0000000000       0.0000000000       0.0000000000
				       0.0000000000       0.0000000000       0.0000000000
				       0.0000000000       0.0000000000       0.0000000000

	Starting bead for growth               : 0

	Number of atoms                        : 2

	Number of constraint bonds             : 0
	Number of constraint bends             : 0
	Number of constraint inversion bends   : 0
	Number of constraint torsions          : 0
	Number of constraint improper torsions : 0
	Number of constraint improper torsions : 0

	Number of bonds                        : 1
	Number of Urey-Bradleys                : 0
	Number of bends                        : 0
	Number of inversion bends              : 0
	Number of torsions                     : 0
	Number of improper torsions            : 0
	Number of improper torsions            : 0

	Number of bond/bond cross terms        : 0
	Number of bond/bend cross terms        : 0
	Number of bend/bend cross terms        : 0
	Number of stretch/torsion cross terms  : 0
	Number of bend/torsion cross terms     : 0

	Number of charges                      : 0
	Number of bond-dipoles                 : 0

	Number of intra Van der Waals                             : 0
	Number of intra charge-charge Coulomb                     : 0
	Number of intra charge-bonddipole Coulomb                 : 0
	Number of intra bonddipole-bonddipole Coulomb             : 0

	Number of excluded intra charge-charge Coulomb                     : 0
	Number of excluded intra charge-bonddipole Coulomb                 : 0
	Number of excluded intra bonddipole-bonddipole Coulomb             : 0

	Number of cbmc-config moves                               : 0

	Particle Moves:             
		ProbabilityTranslationMove:                  25.000000
			TranslationDirection:      XYZ
		Percentage of random translation moves:       0.000000
		Percentage of rotation moves:                 25.000000
		Percentage of partial reinsertion moves:      0.000000
		Percentage of regrow moves:                   25.000000
		Percentage of regrow-in-place moves:          0.000000
		Percentage of regrow-in-plane moves:          0.000000
		Percentage of identity-change moves:          0.000000
		Percentage of swap (insert/delete) moves:     0.000000
		Percentage of Widom insertion moves:          0.000000
		Percentage of surface-area moves:             0.000000
		Percentage of Gibbs particle-transfer moves:  25.000000
		Percentage of Gibbs identity-change moves:    0.000000

	System Moves (percentage per cycle):
		Percentage of parallel-tempering moves:       0.000000
		Percentage of hyper-parallel-tempering moves: 0.000000
		Percentage of parallel-mol-fraction moves:    0.000000
			   Component A: 0 B: 1
		Percentage of chiral inversion moves:         0.000000
		Percentage of volume-change moves:            0.000000
		Percentage of box-shape-change moves:         0.000000
		Percentage of Gibbs volume-change moves:      100.000000
		Percentage of Hybrid-NVE moves:               0.000000
		Percentage of Hybrid-NPH moves:               0.000000
		Percentage of Hybrid-NPHPR moves:             0.000000
		Percentage of framework-change moves:         0.000000
		Percentage of framework-shift moves:          0.000000

	Moves are restricted: No
	No biased sampling used for this component

	Number of Bonds: 1
	--------------------------------------------
	Bond interaction 0: A=0 B=1 Type:HARMONIC_BOND
		HARMONIC_BOND: p_0/k_B=96500.000000 [K/A^2], p_1=1.540000   [A]


	number of identity-config changes: 1
	--------------------------------------------
	nr fixed 1: 0 

	Number of pockets blocked in a unitcell: 0
		Pockets are NOT blocked for this component



System Properties
===========================================================================
Unit cell size: 80.000000 80.000000 80.000000
Cell angles (radians)  alpha: 1.570796 beta: 1.570796 gamma: 1.570796
Cell angles (degrees)  alpha: 90.000000 beta: 90.000000 gamma: 90.000000
Number of unitcells [a]: 1
Number of unitcells [b]: 1
Number of unitcells [c]: 1

TRICLINIC Boundary conditions: alpha!=90 or beta!=90 or gamma!=90

Cartesian axis A is collinear with crystallographic axis a
Cartesian axis B is collinear with (axb)xA
Cartesian axis C is collinear with (axb)

lengths of cell vectors:
 80.00000  80.00000  80.00000
cosines of cell angles:
  0.00000   0.00000   0.00000
perpendicular cell widths:
 80.00000  80.00000  80.00000
volume of the cell: 512000.000000000000 (A^3)

Orthogonalization matrix Box
Transforms fractional coordinates abc into orthonormal Cartesian coordinates xyz
Deorthogonalization matrix InverseBox
Transforms orthonormal Cartesian coordinates xyz into fractional coordinates xyz

Box[1]:
	   80.000000000000     0.000000000000     0.000000000000
	    0.000000000000    80.000000000000     0.000000000000
	    0.000000000000     0.000000000000    80.000000000000

Inverse box[1]:
	    0.012500000000    -0.000000000000    -0.000000000000
	    0.000000000000     0.012500000000    -0.000000000000
	    0.000000000000     0.000000000000     0.012500000000


Unitcell box[1]:
	   80.000000000000     0.000000000000     0.000000000000
	    0.000000000000    80.000000000000     0.000000000000
	    0.000000000000     0.000000000000    80.000000000000

Unitcell inverse box[1]:
	    0.012500000000    -0.000000000000    -0.000000000000
	    0.000000000000     0.012500000000    -0.000000000000
	    0.000000000000     0.000000000000     0.012500000000

lengths of cell vectors (inverse box):
  0.01250   0.01250   0.01250
cosines of cell angles (inverse box):
 -0.00000  -0.00000  -0.00000
perpendicular cell widths (inverse):
  0.01250   0.01250   0.01250
volume of the cell: 512000.000000000000 (A^3)

No replicas are used
Framework is simulated as 'rigid'
Number of framework atoms: 0
Number of framework atoms in the unit cell: 0
Framework Mass:     0.000000000000 [g/mol]
Framework Density:     0.000000000000 [kg/m^3]                inf [cm^3/g]
Helium void fraction:    0.00000000
Available pore volume:    0.00000000 [A^3]           nan [cm^3/g]
Conversion factor from molecule/unit cell -> kmol/m^3: 0.00324324, kmol/m^3 accesible pore volume: inf

Number Of Frameworks (per system): 0
----------------------------------------------------------------------

Current Atom Status
===========================================================================
Number of framework atoms        : 0
Number of cations molecules      : 0
Number of adsorbate molecules    : 32
Component    0 :   32 molecules
Pseudo Atoms    0 [    UNIT]:    0 atoms
Pseudo Atoms    1 [ CH4_sp3]:    0 atoms
Pseudo Atoms    2 [ CH3_sp3]:   64 atoms
Pseudo Atoms    3 [ CH2_sp3]:    0 atoms
Pseudo Atoms    4 [  CH_sp3]:    0 atoms
Pseudo Atoms    5 [   C_sp3]:    0 atoms
Pseudo Atoms    6 [   C_co2]:    0 atoms
Pseudo Atoms    7 [   O_co2]:    0 atoms
Pseudo Atoms    8 [    N_n2]:    0 atoms
Pseudo Atoms    9 [   N_com]:    0 atoms


Current (running) Energy Status
===========================================================================

Internal energy:
Host stretch energy:                                               0.00000
Host UreyBradley energy:                                           0.00000
Host bend energy:                                                  0.00000
Host inversion-bend energy:                                        0.00000
Host torsion energy:                                               0.00000
Host improper torsion energy:                                      0.00000
Host out-of-plane energy:                                          0.00000
Host stretch/stretch energy:                                       0.00000
Host bend/bend energy:                                             0.00000
Host stretch/bend energy:                                          0.00000
Host stretch/torsion energy:                                       0.00000
Host bend/torsion energy:                                          0.00000

Adsorbate stretch energy:                                       2092.53466
Adsorbate UreyBradley energy:                                      0.00000
Adsorbate bend energy:                                             0.00000
Adsorbate inversion-bend energy:                                   0.00000
Adsorbate torsion energy:                                          0.00000
Adsorbate improper torsion energy:                                 0.00000
Adsorbate out-of-plane energy:                                     0.00000
Adsorbate stretch/stretch energy:                                  0.00000
Adsorbate bend/bend energy:                                        0.00000
Adsorbate stretch/bend energy:                                     0.00000
Adsorbate stretch/torsion energy:                                  0.00000
Adsorbate bend/torsion energy:                                     0.00000
Adsorbate intra VDW energy:                                        0.00000
Adsorbate intra charge-charge Coulomb energy:                      0.00000
Adsorbate intra charge-bonddipole Coulomb energy:                  0.00000
Adsorbate intra bonddipole-bonddipole Coulomb energy:              0.00000

Cation stretch energy:                                             0.00000
Cation UreyBradley energy:                                         0.00000
Cation bend energy:                                                0.00000
Cation inversion-bend energy:                                      0.00000
Cation torsion energy:                                             0.00000
Cation improper torsion energy:                                    0.00000
Cation out-of-plane energy:                                        0.00000
Cation stretch/stretch energy:                                     0.00000
Cation bend/bend energy:                                           0.00000
Cation stretch/bend energy:                                        0.00000
Cation stretch/torsion energy:                                     0.00000
Cation bend/torsion energy:                                        0.00000
Cation intra VDW energy:                                           0.00000
Cation intra charge-charge Coulomb energy:                         0.00000
Cation intra charge-bonddipole Coulomb energy:                     0.00000
Cation intra bonddipole-bonddipole Coulomb energy:                 0.00000

Host/Host energy:                                                0.00000
	Host/Host VDW energy:                                            0.00000
	Host/Host Coulomb energy:                                        0.00000
	Host/Host charge-charge Real energy:                             0.00000
	Host/Host charge-charge Fourier energy:                          0.00000
	Host/Host charge-bonddipole Real energy:                         0.00000
	Host/Host charge-bonddipole Fourier energy:                      0.00000
	Host/Host bondipole-bonddipole Real energy:                      0.00000
	Host/Host bondipole-bonddipole Fourier energy:                   0.00000

Host/Adsorbate energy:                                           0.00000
	Host/Adsorbate VDW energy:                                       0.00000
	Host/Adsorbate Coulomb energy:                                   0.00000
	Host/Adsorbate charge-charge Real energy:                        0.00000
	Host/Adsorbate charge-charge Fourier energy:                     0.00000
	Host/Adsorbate charge-bonddipole Real energy:                    0.00000
	Host/Adsorbate charge-bonddipole Fourier energy:                 0.00000
	Host/Adsorbate bondipole-bonddipole Real energy:                 0.00000
	Host/Adsorbate bondipole-bonddipole Fourier energy:              0.00000

Host/Cation energy:                                              0.00000
	Host/Cation VDW energy:                                          0.00000
	Host/Cation Coulomb energy:                                      0.00000
	Host/Cation charge-charge Real energy:                           0.00000
	Host/Cation charge-charge Fourier energy:                        0.00000
	Host/Cation charge-bonddipole Real energy:                       0.00000
	Host/Cation charge-bonddipole Fourier energy:                    0.00000
	Host/Cation bondipole-bonddipole Real energy:                    0.00000
	Host/Cation bondipole-bonddipole Fourier energy:                 0.00000

Adsorbate/Adsorbate energy:                                        -198.31127
	Adsorbate/Adsorbate VDW energy:                                    -198.31127
	Adsorbate/Adsorbate Coulomb energy:                                   0.00000
	Adsorbate/Adsorbate charge-charge Real energy:                        0.00000
	Adsorbate/Adsorbate charge-charge Fourier energy:                     0.00000
	Adsorbate/Adsorbate charge-bonddipole Real energy:                    0.00000
	Adsorbate/Adsorbate charge-bonddipole Fourier energy:                 0.00000
	Adsorbate/Adsorbate bondipole-bonddipole Real energy:                 0.00000
	Adsorbate/Adsorbate bondipole-bonddipole Fourier energy:              0.00000

Adsorbate/Cation energy:                                              0.00000
	Adsorbate/Cation VDW energy:                                          0.00000
	Adsorbate/Cation Coulomb energy:                                      0.00000
	Adsorbate/Cation charge-charge Real energy:                           0.00000
	Adsorbate/Cation charge-charge Fourier energy:                        0.00000
	Adsorbate/Cation charge-bonddipole Real energy:                       0.00000
	Adsorbate/Cation charge-bonddipole Fourier energy:                    0.00000
	Adsorbate/Cation bondipole-bonddipole Real energy:                    0.00000
	Adsorbate/Cation bondipole-bonddipole Fourier energy:                 0.00000

Cation/Cation energy:                                              0.00000
	Cation/Cation VDW energy:                                          0.00000
	Cation/Cation Coulomb energy:                                      0.00000
	Cation/Cation charge-charge Real energy:                           0.00000
	Cation/Cation charge-charge Fourier energy:                        0.00000
	Cation/Cation charge-bonddipole Real energy:                       0.00000
	Cation/Cation charge-bonddipole Fourier energy:                    0.00000
	Cation/Cation bondipole-bonddipole Real energy:                    0.00000
	Cation/Cation bondipole-bonddipole Fourier energy:                 0.00000

Polarization energy:
	Host polarization energy:                                        0.00000
	Adsorbate polarization energy:                                   0.00000
	Cation polarization energy:                                      0.00000
	Host back-polarization energy:                                        0.00000
	Adsorbate back-polarization energy:                                   0.00000
	Cation back-polarization energy:                                      0.00000

Tail-correction energy:                                        -10.56680

Distance constraints energy:                                     0.00000
Angle constraints energy:                                        0.00000
Dihedral constraints energy:                                     0.00000
Inversion-bend constraints energy:                               0.00000
Out-of-plane distance constraints energy:                        0.00000
Exclusion constraints energy:                                    0.00000

===================================================================
Total energy:  1883.656587445249
	Total Van der Waals: -198.311268
	Total Coulomb: 0.000000

	Total Polarization: 0.000000







+++++++++++++++++++++++++++++++++++++++++++++++++++++++++++++++++++++++++
Starting simulation
+++++++++++++++++++++++++++++++++++++++++++++++++++++++++++++++++++++++++

[Init] Current cycle: 0 out of 5000
========================================================================================================

Net charge: 0 (F: 0, A: 0, C: 0)
Current Box:  80.00000   0.00000   0.00000 [A]
               0.00000  80.00000   0.00000 [A]
               0.00000   0.00000  80.00000 [A]
Box-lengths:  80.00000  80.00000  80.00000 Box-angles:   90.00000  90.00000  90.00000 [degrees]
Volume: 512000.00000 [A^3]

Amount of molecules per component:
----------------------------------------------------------------------------------------------------------------------------------------------------
Component 0 (ethane), current number of mol/uc:  32.00000, density:   3.12068 [kg/m^3]
----------------------------------------------------------------------------------------------------------------------------------------------------
Number of Framework-atoms: 0
Number of Adsorbates:      32
Number of Cations:         0

Current total potential energy:              1883.6565874452 [K]
	Current Host-Host energy:                     0.0000000000 [K]
	Current Host-Adsorbate energy:                0.0000000000 [K]
	Current Host-Cation energy:                   0.0000000000 [K]
	Current Adsorbate-Adsorbate energy:        -198.3112680277 [K]
	Current Cation-Cation energy:                 0.0000000000 [K]
	Current Adsorbate-Cation energy:              0.0000000000 [K]



[Init] Current cycle: 100 out of 5000
========================================================================================================

Net charge: 0 (F: 0, A: 0, C: 0)
Current Box:  79.34882   0.00000   0.00000 [A]
               0.00000  79.34882   0.00000 [A]
               0.00000   0.00000  79.34882 [A]
Box-lengths:  79.34882  79.34882  79.34882 Box-angles:   90.00000  90.00000  90.00000 [degrees]
Volume: 499598.92676 [A^3]

Amount of molecules per component:
----------------------------------------------------------------------------------------------------------------------------------------------------
Component 0 (ethane), current number of mol/uc:  14.00000, density:   1.39919 [kg/m^3]
----------------------------------------------------------------------------------------------------------------------------------------------------
Number of Framework-atoms: 0
Number of Adsorbates:      14
Number of Cations:         0

Current total potential energy:              1970.9453718686 [K]
	Current Host-Host energy:                     0.0000000000 [K]
	Current Host-Adsorbate energy:                0.0000000000 [K]
	Current Host-Cation energy:                   0.0000000000 [K]
	Current Adsorbate-Adsorbate energy:         -13.0369365876 [K]
	Current Cation-Cation energy:                 0.0000000000 [K]
	Current Adsorbate-Cation energy:              0.0000000000 [K]



[Init] Current cycle: 200 out of 5000
========================================================================================================

Net charge: 0 (F: 0, A: 0, C: 0)
Current Box:  79.36901   0.00000   0.00000 [A]
               0.00000  79.36901   0.00000 [A]
               0.00000   0.00000  79.36901 [A]
Box-lengths:  79.36901  79.36901  79.36901 Box-angles:   90.00000  90.00000  90.00000 [degrees]
Volume: 499980.22503 [A^3]

Amount of molecules per component:
----------------------------------------------------------------------------------------------------------------------------------------------------
Component 0 (ethane), current number of mol/uc:   8.00000, density:   0.79893 [kg/m^3]
----------------------------------------------------------------------------------------------------------------------------------------------------
Number of Framework-atoms: 0
Number of Adsorbates:      8
Number of Cations:         0

Current total potential energy:               385.4956647617 [K]
	Current Host-Host energy:                     0.0000000000 [K]
	Current Host-Adsorbate energy:                0.0000000000 [K]
	Current Host-Cation energy:                   0.0000000000 [K]
	Current Adsorbate-Adsorbate energy:         -34.6990514328 [K]
	Current Cation-Cation energy:                 0.0000000000 [K]
	Current Adsorbate-Cation energy:              0.0000000000 [K]



[Init] Current cycle: 300 out of 5000
========================================================================================================

Net charge: 0 (F: 0, A: 0, C: 0)
Current Box:  79.43235   0.00000   0.00000 [A]
               0.00000  79.43235   0.00000 [A]
               0.00000   0.00000  79.43235 [A]
Box-lengths:  79.43235  79.43235  79.43235 Box-angles:   90.00000  90.00000  90.00000 [degrees]
Volume: 501178.30466 [A^3]

Amount of molecules per component:
----------------------------------------------------------------------------------------------------------------------------------------------------
Component 0 (ethane), current number of mol/uc:  11.00000, density:   1.09590 [kg/m^3]
----------------------------------------------------------------------------------------------------------------------------------------------------
Number of Framework-atoms: 0
Number of Adsorbates:      11
Number of Cations:         0

Current total potential energy:              1355.5755231669 [K]
	Current Host-Host energy:                     0.0000000000 [K]
	Current Host-Adsorbate energy:                0.0000000000 [K]
	Current Host-Cation energy:                   0.0000000000 [K]
	Current Adsorbate-Adsorbate energy:         -59.5722992343 [K]
	Current Cation-Cation energy:                 0.0000000000 [K]
	Current Adsorbate-Cation energy:              0.0000000000 [K]



[Init] Current cycle: 400 out of 5000
========================================================================================================

Net charge: 0 (F: 0, A: 0, C: 0)
Current Box:  79.48397   0.00000   0.00000 [A]
               0.00000  79.48397   0.00000 [A]
               0.00000   0.00000  79.48397 [A]
Box-lengths:  79.48397  79.48397  79.48397 Box-angles:   90.00000  90.00000  90.00000 [degrees]
Volume: 502156.02163 [A^3]

Amount of molecules per component:
----------------------------------------------------------------------------------------------------------------------------------------------------
Component 0 (ethane), current number of mol/uc:  21.00000, density:   2.08809 [kg/m^3]
----------------------------------------------------------------------------------------------------------------------------------------------------
Number of Framework-atoms: 0
Number of Adsorbates:      21
Number of Cations:         0

Current total potential energy:              1697.4975469842 [K]
	Current Host-Host energy:                     0.0000000000 [K]
	Current Host-Adsorbate energy:                0.0000000000 [K]
	Current Host-Cation energy:                   0.0000000000 [K]
	Current Adsorbate-Adsorbate energy:          -7.6914592744 [K]
	Current Cation-Cation energy:                 0.0000000000 [K]
	Current Adsorbate-Cation energy:              0.0000000000 [K]



[Init] Current cycle: 500 out of 5000
========================================================================================================

Net charge: 0 (F: 0, A: 0, C: 0)
Current Box:  79.46669   0.00000   0.00000 [A]
               0.00000  79.46669   0.00000 [A]
               0.00000   0.00000  79.46669 [A]
Box-lengths:  79.46669  79.46669  79.46669 Box-angles:   90.00000  90.00000  90.00000 [degrees]
Volume: 501828.54421 [A^3]

Amount of molecules per component:
----------------------------------------------------------------------------------------------------------------------------------------------------
Component 0 (ethane), current number of mol/uc:  22.00000, density:   2.18895 [kg/m^3]
----------------------------------------------------------------------------------------------------------------------------------------------------
Number of Framework-atoms: 0
Number of Adsorbates:      22
Number of Cations:         0

Current total potential energy:              2157.9291978824 [K]
	Current Host-Host energy:                     0.0000000000 [K]
	Current Host-Adsorbate energy:                0.0000000000 [K]
	Current Host-Cation energy:                   0.0000000000 [K]
	Current Adsorbate-Adsorbate energy:        -138.0272208589 [K]
	Current Cation-Cation energy:                 0.0000000000 [K]
	Current Adsorbate-Cation energy:              0.0000000000 [K]



[Init] Current cycle: 600 out of 5000
========================================================================================================

Net charge: 0 (F: 0, A: 0, C: 0)
Current Box:  79.47452   0.00000   0.00000 [A]
               0.00000  79.47452   0.00000 [A]
               0.00000   0.00000  79.47452 [A]
Box-lengths:  79.47452  79.47452  79.47452 Box-angles:   90.00000  90.00000  90.00000 [degrees]
Volume: 501976.92268 [A^3]

Amount of molecules per component:
----------------------------------------------------------------------------------------------------------------------------------------------------
Component 0 (ethane), current number of mol/uc:  21.00000, density:   2.08884 [kg/m^3]
----------------------------------------------------------------------------------------------------------------------------------------------------
Number of Framework-atoms: 0
Number of Adsorbates:      21
Number of Cations:         0

Current total potential energy:              1434.2220340224 [K]
	Current Host-Host energy:                     0.0000000000 [K]
	Current Host-Adsorbate energy:                0.0000000000 [K]
	Current Host-Cation energy:                   0.0000000000 [K]
	Current Adsorbate-Adsorbate energy:        -137.3724334438 [K]
	Current Cation-Cation energy:                 0.0000000000 [K]
	Current Adsorbate-Cation energy:              0.0000000000 [K]



[Init] Current cycle: 700 out of 5000
========================================================================================================

Net charge: 0 (F: 0, A: 0, C: 0)
Current Box:  79.52125   0.00000   0.00000 [A]
               0.00000  79.52125   0.00000 [A]
               0.00000   0.00000  79.52125 [A]
Box-lengths:  79.52125  79.52125  79.52125 Box-angles:   90.00000  90.00000  90.00000 [degrees]
Volume: 502862.83089 [A^3]

Amount of molecules per component:
----------------------------------------------------------------------------------------------------------------------------------------------------
Component 0 (ethane), current number of mol/uc:  23.00000, density:   2.28374 [kg/m^3]
----------------------------------------------------------------------------------------------------------------------------------------------------
Number of Framework-atoms: 0
Number of Adsorbates:      23
Number of Cations:         0

Current total potential energy:              3152.9588018624 [K]
	Current Host-Host energy:                     0.0000000000 [K]
	Current Host-Adsorbate energy:                0.0000000000 [K]
	Current Host-Cation energy:                   0.0000000000 [K]
	Current Adsorbate-Adsorbate energy:        -110.0739805152 [K]
	Current Cation-Cation energy:                 0.0000000000 [K]
	Current Adsorbate-Cation energy:              0.0000000000 [K]



[Init] Current cycle: 800 out of 5000
========================================================================================================

Net charge: 0 (F: 0, A: 0, C: 0)
Current Box:  79.49798   0.00000   0.00000 [A]
               0.00000  79.49798   0.00000 [A]
               0.00000   0.00000  79.49798 [A]
Box-lengths:  79.49798  79.49798  79.49798 Box-angles:   90.00000  90.00000  90.00000 [degrees]
Volume: 502421.50462 [A^3]

Amount of molecules per component:
----------------------------------------------------------------------------------------------------------------------------------------------------
Component 0 (ethane), current number of mol/uc:  18.00000, density:   1.78885 [kg/m^3]
----------------------------------------------------------------------------------------------------------------------------------------------------
Number of Framework-atoms: 0
Number of Adsorbates:      18
Number of Cations:         0

Current total potential energy:              1757.1269449126 [K]
	Current Host-Host energy:                     0.0000000000 [K]
	Current Host-Adsorbate energy:                0.0000000000 [K]
	Current Host-Cation energy:                   0.0000000000 [K]
	Current Adsorbate-Adsorbate energy:          -9.8779773062 [K]
	Current Cation-Cation energy:                 0.0000000000 [K]
	Current Adsorbate-Cation energy:              0.0000000000 [K]



[Init] Current cycle: 900 out of 5000
========================================================================================================

Net charge: 0 (F: 0, A: 0, C: 0)
Current Box:  79.52425   0.00000   0.00000 [A]
               0.00000  79.52425   0.00000 [A]
               0.00000   0.00000  79.52425 [A]
Box-lengths:  79.52425  79.52425  79.52425 Box-angles:   90.00000  90.00000  90.00000 [degrees]
Volume: 502919.81459 [A^3]

Amount of molecules per component:
----------------------------------------------------------------------------------------------------------------------------------------------------
Component 0 (ethane), current number of mol/uc:  22.00000, density:   2.18420 [kg/m^3]
----------------------------------------------------------------------------------------------------------------------------------------------------
Number of Framework-atoms: 0
Number of Adsorbates:      22
Number of Cations:         0

Current total potential energy:              1570.8333298395 [K]
	Current Host-Host energy:                     0.0000000000 [K]
	Current Host-Adsorbate energy:                0.0000000000 [K]
	Current Host-Cation energy:                   0.0000000000 [K]
	Current Adsorbate-Adsorbate energy:         -17.7612101497 [K]
	Current Cation-Cation energy:                 0.0000000000 [K]
	Current Adsorbate-Cation energy:              0.0000000000 [K]



[Init] Current cycle: 1000 out of 5000
========================================================================================================

Net charge: 0 (F: 0, A: 0, C: 0)
Current Box:  79.51961   0.00000   0.00000 [A]
               0.00000  79.51961   0.00000 [A]
               0.00000   0.00000  79.51961 [A]
Box-lengths:  79.51961  79.51961  79.51961 Box-angles:   90.00000  90.00000  90.00000 [degrees]
Volume: 502831.69922 [A^3]

Amount of molecules per component:
----------------------------------------------------------------------------------------------------------------------------------------------------
Component 0 (ethane), current number of mol/uc:  19.00000, density:   1.88669 [kg/m^3]
----------------------------------------------------------------------------------------------------------------------------------------------------
Number of Framework-atoms: 0
Number of Adsorbates:      19
Number of Cations:         0

Current total potential energy:              2692.0944756481 [K]
	Current Host-Host energy:                     0.0000000000 [K]
	Current Host-Adsorbate energy:                0.0000000000 [K]
	Current Host-Cation energy:                   0.0000000000 [K]
	Current Adsorbate-Adsorbate energy:         -49.4046529120 [K]
	Current Cation-Cation energy:                 0.0000000000 [K]
	Current Adsorbate-Cation energy:              0.0000000000 [K]



[Init] Current cycle: 1100 out of 5000
========================================================================================================

Net charge: 0 (F: 0, A: 0, C: 0)
Current Box:  79.49664   0.00000   0.00000 [A]
               0.00000  79.49664   0.00000 [A]
               0.00000   0.00000  79.49664 [A]
Box-lengths:  79.49664  79.49664  79.49664 Box-angles:   90.00000  90.00000  90.00000 [degrees]
Volume: 502396.10246 [A^3]

Amount of molecules per component:
----------------------------------------------------------------------------------------------------------------------------------------------------
Component 0 (ethane), current number of mol/uc:  21.00000, density:   2.08709 [kg/m^3]
----------------------------------------------------------------------------------------------------------------------------------------------------
Number of Framework-atoms: 0
Number of Adsorbates:      21
Number of Cations:         0

Current total potential energy:              1707.8578983241 [K]
	Current Host-Host energy:                     0.0000000000 [K]
	Current Host-Adsorbate energy:                0.0000000000 [K]
	Current Host-Cation energy:                   0.0000000000 [K]
	Current Adsorbate-Adsorbate energy:        -261.5214267818 [K]
	Current Cation-Cation energy:                 0.0000000000 [K]
	Current Adsorbate-Cation energy:              0.0000000000 [K]



[Init] Current cycle: 1200 out of 5000
========================================================================================================

Net charge: 0 (F: 0, A: 0, C: 0)
Current Box:  79.54635   0.00000   0.00000 [A]
               0.00000  79.54635   0.00000 [A]
               0.00000   0.00000  79.54635 [A]
Box-lengths:  79.54635  79.54635  79.54635 Box-angles:   90.00000  90.00000  90.00000 [degrees]
Volume: 503339.25432 [A^3]

Amount of molecules per component:
----------------------------------------------------------------------------------------------------------------------------------------------------
Component 0 (ethane), current number of mol/uc:  20.00000, density:   1.98398 [kg/m^3]
----------------------------------------------------------------------------------------------------------------------------------------------------
Number of Framework-atoms: 0
Number of Adsorbates:      20
Number of Cations:         0

Current total potential energy:              1553.0136933351 [K]
	Current Host-Host energy:                     0.0000000000 [K]
	Current Host-Adsorbate energy:                0.0000000000 [K]
	Current Host-Cation energy:                   0.0000000000 [K]
	Current Adsorbate-Adsorbate energy:         -13.3054689001 [K]
	Current Cation-Cation energy:                 0.0000000000 [K]
	Current Adsorbate-Cation energy:              0.0000000000 [K]



[Init] Current cycle: 1300 out of 5000
========================================================================================================

Net charge: 0 (F: 0, A: 0, C: 0)
Current Box:  79.56102   0.00000   0.00000 [A]
               0.00000  79.56102   0.00000 [A]
               0.00000   0.00000  79.56102 [A]
Box-lengths:  79.56102  79.56102  79.56102 Box-angles:   90.00000  90.00000  90.00000 [degrees]
Volume: 503617.68534 [A^3]

Amount of molecules per component:
----------------------------------------------------------------------------------------------------------------------------------------------------
Component 0 (ethane), current number of mol/uc:  21.00000, density:   2.08203 [kg/m^3]
----------------------------------------------------------------------------------------------------------------------------------------------------
Number of Framework-atoms: 0
Number of Adsorbates:      21
Number of Cations:         0

Current total potential energy:              1205.4887475517 [K]
	Current Host-Host energy:                     0.0000000000 [K]
	Current Host-Adsorbate energy:                0.0000000000 [K]
	Current Host-Cation energy:                   0.0000000000 [K]
	Current Adsorbate-Adsorbate energy:        -177.8892008503 [K]
	Current Cation-Cation energy:                 0.0000000000 [K]
	Current Adsorbate-Cation energy:              0.0000000000 [K]



[Init] Current cycle: 1400 out of 5000
========================================================================================================

Net charge: 0 (F: 0, A: 0, C: 0)
Current Box:  79.55049   0.00000   0.00000 [A]
               0.00000  79.55049   0.00000 [A]
               0.00000   0.00000  79.55049 [A]
Box-lengths:  79.55049  79.55049  79.55049 Box-angles:   90.00000  90.00000  90.00000 [degrees]
Volume: 503417.85882 [A^3]

Amount of molecules per component:
----------------------------------------------------------------------------------------------------------------------------------------------------
Component 0 (ethane), current number of mol/uc:  28.00000, density:   2.77714 [kg/m^3]
----------------------------------------------------------------------------------------------------------------------------------------------------
Number of Framework-atoms: 0
Number of Adsorbates:      28
Number of Cations:         0

Current total potential energy:              1474.7829583609 [K]
	Current Host-Host energy:                     0.0000000000 [K]
	Current Host-Adsorbate energy:                0.0000000000 [K]
	Current Host-Cation energy:                   0.0000000000 [K]
	Current Adsorbate-Adsorbate energy:        -408.7964762861 [K]
	Current Cation-Cation energy:                 0.0000000000 [K]
	Current Adsorbate-Cation energy:              0.0000000000 [K]



[Init] Current cycle: 1500 out of 5000
========================================================================================================

Net charge: 0 (F: 0, A: 0, C: 0)
Current Box:  79.56400   0.00000   0.00000 [A]
               0.00000  79.56400   0.00000 [A]
               0.00000   0.00000  79.56400 [A]
Box-lengths:  79.56400  79.56400  79.56400 Box-angles:   90.00000  90.00000  90.00000 [degrees]
Volume: 503674.39833 [A^3]

Amount of molecules per component:
----------------------------------------------------------------------------------------------------------------------------------------------------
Component 0 (ethane), current number of mol/uc:  25.00000, density:   2.47833 [kg/m^3]
----------------------------------------------------------------------------------------------------------------------------------------------------
Number of Framework-atoms: 0
Number of Adsorbates:      25
Number of Cations:         0

Current total potential energy:              1547.1155924153 [K]
	Current Host-Host energy:                     0.0000000000 [K]
	Current Host-Adsorbate energy:                0.0000000000 [K]
	Current Host-Cation energy:                   0.0000000000 [K]
	Current Adsorbate-Adsorbate energy:         -40.0304055428 [K]
	Current Cation-Cation energy:                 0.0000000000 [K]
	Current Adsorbate-Cation energy:              0.0000000000 [K]



[Init] Current cycle: 1600 out of 5000
========================================================================================================

Net charge: 0 (F: 0, A: 0, C: 0)
Current Box:  79.53863   0.00000   0.00000 [A]
               0.00000  79.53863   0.00000 [A]
               0.00000   0.00000  79.53863 [A]
Box-lengths:  79.53863  79.53863  79.53863 Box-angles:   90.00000  90.00000  90.00000 [degrees]
Volume: 503192.68387 [A^3]

Amount of molecules per component:
----------------------------------------------------------------------------------------------------------------------------------------------------
Component 0 (ethane), current number of mol/uc:  27.00000, density:   2.67916 [kg/m^3]
----------------------------------------------------------------------------------------------------------------------------------------------------
Number of Framework-atoms: 0
Number of Adsorbates:      27
Number of Cations:         0

Current total potential energy:              1896.2060548101 [K]
	Current Host-Host energy:                     0.0000000000 [K]
	Current Host-Adsorbate energy:                0.0000000000 [K]
	Current Host-Cation energy:                   0.0000000000 [K]
	Current Adsorbate-Adsorbate energy:        -180.1967432512 [K]
	Current Cation-Cation energy:                 0.0000000000 [K]
	Current Adsorbate-Cation energy:              0.0000000000 [K]



[Init] Current cycle: 1700 out of 5000
========================================================================================================

Net charge: 0 (F: 0, A: 0, C: 0)
Current Box:  79.56230   0.00000   0.00000 [A]
               0.00000  79.56230   0.00000 [A]
               0.00000   0.00000  79.56230 [A]
Box-lengths:  79.56230  79.56230  79.56230 Box-angles:   90.00000  90.00000  90.00000 [degrees]
Volume: 503642.11725 [A^3]

Amount of molecules per component:
----------------------------------------------------------------------------------------------------------------------------------------------------
Component 0 (ethane), current number of mol/uc:  20.00000, density:   1.98279 [kg/m^3]
----------------------------------------------------------------------------------------------------------------------------------------------------
Number of Framework-atoms: 0
Number of Adsorbates:      20
Number of Cations:         0

Current total potential energy:              2303.2424335369 [K]
	Current Host-Host energy:                     0.0000000000 [K]
	Current Host-Adsorbate energy:                0.0000000000 [K]
	Current Host-Cation energy:                   0.0000000000 [K]
	Current Adsorbate-Adsorbate energy:         -54.8022340925 [K]
	Current Cation-Cation energy:                 0.0000000000 [K]
	Current Adsorbate-Cation energy:              0.0000000000 [K]



[Init] Current cycle: 1800 out of 5000
========================================================================================================

Net charge: 0 (F: 0, A: 0, C: 0)
Current Box:  79.52965   0.00000   0.00000 [A]
               0.00000  79.52965   0.00000 [A]
               0.00000   0.00000  79.52965 [A]
Box-lengths:  79.52965  79.52965  79.52965 Box-angles:   90.00000  90.00000  90.00000 [degrees]
Volume: 503022.27203 [A^3]

Amount of molecules per component:
----------------------------------------------------------------------------------------------------------------------------------------------------
Component 0 (ethane), current number of mol/uc:  23.00000, density:   2.28302 [kg/m^3]
----------------------------------------------------------------------------------------------------------------------------------------------------
Number of Framework-atoms: 0
Number of Adsorbates:      23
Number of Cations:         0

Current total potential energy:              2776.7382188322 [K]
	Current Host-Host energy:                     0.0000000000 [K]
	Current Host-Adsorbate energy:                0.0000000000 [K]
	Current Host-Cation energy:                   0.0000000000 [K]
	Current Adsorbate-Adsorbate energy:         -20.4091259089 [K]
	Current Cation-Cation energy:                 0.0000000000 [K]
	Current Adsorbate-Cation energy:              0.0000000000 [K]



[Init] Current cycle: 1900 out of 5000
========================================================================================================

Net charge: 0 (F: 0, A: 0, C: 0)
Current Box:  79.55868   0.00000   0.00000 [A]
               0.00000  79.55868   0.00000 [A]
               0.00000   0.00000  79.55868 [A]
Box-lengths:  79.55868  79.55868  79.55868 Box-angles:   90.00000  90.00000  90.00000 [degrees]
Volume: 503573.24888 [A^3]

Amount of molecules per component:
----------------------------------------------------------------------------------------------------------------------------------------------------
Component 0 (ethane), current number of mol/uc:  26.00000, density:   2.57798 [kg/m^3]
----------------------------------------------------------------------------------------------------------------------------------------------------
Number of Framework-atoms: 0
Number of Adsorbates:      26
Number of Cations:         0

Current total potential energy:              3002.3004653161 [K]
	Current Host-Host energy:                     0.0000000000 [K]
	Current Host-Adsorbate energy:                0.0000000000 [K]
	Current Host-Cation energy:                   0.0000000000 [K]
	Current Adsorbate-Adsorbate energy:         -45.1387426435 [K]
	Current Cation-Cation energy:                 0.0000000000 [K]
	Current Adsorbate-Cation energy:              0.0000000000 [K]



[Init] Current cycle: 2000 out of 5000
========================================================================================================

Net charge: 0 (F: 0, A: 0, C: 0)
Current Box:  79.56944   0.00000   0.00000 [A]
               0.00000  79.56944   0.00000 [A]
               0.00000   0.00000  79.56944 [A]
Box-lengths:  79.56944  79.56944  79.56944 Box-angles:   90.00000  90.00000  90.00000 [degrees]
Volume: 503777.68601 [A^3]

Amount of molecules per component:
----------------------------------------------------------------------------------------------------------------------------------------------------
Component 0 (ethane), current number of mol/uc:  26.00000, density:   2.57693 [kg/m^3]
----------------------------------------------------------------------------------------------------------------------------------------------------
Number of Framework-atoms: 0
Number of Adsorbates:      26
Number of Cations:         0

Current total potential energy:              1446.3395779617 [K]
	Current Host-Host energy:                     0.0000000000 [K]
	Current Host-Adsorbate energy:                0.0000000000 [K]
	Current Host-Cation energy:                   0.0000000000 [K]
	Current Adsorbate-Adsorbate energy:        -255.7825460471 [K]
	Current Cation-Cation energy:                 0.0000000000 [K]
	Current Adsorbate-Cation energy:              0.0000000000 [K]



[Init] Current cycle: 2100 out of 5000
========================================================================================================

Net charge: 0 (F: 0, A: 0, C: 0)
Current Box:  79.58013   0.00000   0.00000 [A]
               0.00000  79.58013   0.00000 [A]
               0.00000   0.00000  79.58013 [A]
Box-lengths:  79.58013  79.58013  79.58013 Box-angles:   90.00000  90.00000  90.00000 [degrees]
Volume: 503980.68446 [A^3]

Amount of molecules per component:
----------------------------------------------------------------------------------------------------------------------------------------------------
Component 0 (ethane), current number of mol/uc:  27.00000, density:   2.67497 [kg/m^3]
----------------------------------------------------------------------------------------------------------------------------------------------------
Number of Framework-atoms: 0
Number of Adsorbates:      27
Number of Cations:         0

Current total potential energy:              2822.1034718922 [K]
	Current Host-Host energy:                     0.0000000000 [K]
	Current Host-Adsorbate energy:                0.0000000000 [K]
	Current Host-Cation energy:                   0.0000000000 [K]
	Current Adsorbate-Adsorbate energy:        -314.5658118322 [K]
	Current Cation-Cation energy:                 0.0000000000 [K]
	Current Adsorbate-Cation energy:              0.0000000000 [K]



[Init] Current cycle: 2200 out of 5000
========================================================================================================

Net charge: 0 (F: 0, A: 0, C: 0)
Current Box:  79.57254   0.00000   0.00000 [A]
               0.00000  79.57254   0.00000 [A]
               0.00000   0.00000  79.57254 [A]
Box-lengths:  79.57254  79.57254  79.57254 Box-angles:   90.00000  90.00000  90.00000 [degrees]
Volume: 503836.53933 [A^3]

Amount of molecules per component:
----------------------------------------------------------------------------------------------------------------------------------------------------
Component 0 (ethane), current number of mol/uc:  26.00000, density:   2.57663 [kg/m^3]
----------------------------------------------------------------------------------------------------------------------------------------------------
Number of Framework-atoms: 0
Number of Adsorbates:      26
Number of Cations:         0

Current total potential energy:              3189.3031169580 [K]
	Current Host-Host energy:                     0.0000000000 [K]
	Current Host-Adsorbate energy:                0.0000000000 [K]
	Current Host-Cation energy:                   0.0000000000 [K]
	Current Adsorbate-Adsorbate energy:         -80.0175829980 [K]
	Current Cation-Cation energy:                 0.0000000000 [K]
	Current Adsorbate-Cation energy:              0.0000000000 [K]



[Init] Current cycle: 2300 out of 5000
========================================================================================================

Net charge: 0 (F: 0, A: 0, C: 0)
Current Box:  79.56887   0.00000   0.00000 [A]
               0.00000  79.56887   0.00000 [A]
               0.00000   0.00000  79.56887 [A]
Box-lengths:  79.56887  79.56887  79.56887 Box-angles:   90.00000  90.00000  90.00000 [degrees]
Volume: 503766.88414 [A^3]

Amount of molecules per component:
----------------------------------------------------------------------------------------------------------------------------------------------------
Component 0 (ethane), current number of mol/uc:  25.00000, density:   2.47787 [kg/m^3]
----------------------------------------------------------------------------------------------------------------------------------------------------
Number of Framework-atoms: 0
Number of Adsorbates:      25
Number of Cations:         0

Current total potential energy:              1598.7578819697 [K]
	Current Host-Host energy:                     0.0000000000 [K]
	Current Host-Adsorbate energy:                0.0000000000 [K]
	Current Host-Cation energy:                   0.0000000000 [K]
	Current Adsorbate-Adsorbate energy:        -361.2881280864 [K]
	Current Cation-Cation energy:                 0.0000000000 [K]
	Current Adsorbate-Cation energy:              0.0000000000 [K]



[Init] Current cycle: 2400 out of 5000
========================================================================================================

Net charge: 0 (F: 0, A: 0, C: 0)
Current Box:  79.58007   0.00000   0.00000 [A]
               0.00000  79.58007   0.00000 [A]
               0.00000   0.00000  79.58007 [A]
Box-lengths:  79.58007  79.58007  79.58007 Box-angles:   90.00000  90.00000  90.00000 [degrees]
Volume: 503979.65849 [A^3]

Amount of molecules per component:
----------------------------------------------------------------------------------------------------------------------------------------------------
Component 0 (ethane), current number of mol/uc:  29.00000, density:   2.87312 [kg/m^3]
----------------------------------------------------------------------------------------------------------------------------------------------------
Number of Framework-atoms: 0
Number of Adsorbates:      29
Number of Cations:         0

Current total potential energy:              3058.1785239342 [K]
	Current Host-Host energy:                     0.0000000000 [K]
	Current Host-Adsorbate energy:                0.0000000000 [K]
	Current Host-Cation energy:                   0.0000000000 [K]
	Current Adsorbate-Adsorbate energy:        -453.4661440468 [K]
	Current Cation-Cation energy:                 0.0000000000 [K]
	Current Adsorbate-Cation energy:              0.0000000000 [K]



[Init] Current cycle: 2500 out of 5000
========================================================================================================

Net charge: 0 (F: 0, A: 0, C: 0)
Current Box:  79.59206   0.00000   0.00000 [A]
               0.00000  79.59206   0.00000 [A]
               0.00000   0.00000  79.59206 [A]
Box-lengths:  79.59206  79.59206  79.59206 Box-angles:   90.00000  90.00000  90.00000 [degrees]
Volume: 504207.45119 [A^3]

Amount of molecules per component:
----------------------------------------------------------------------------------------------------------------------------------------------------
Component 0 (ethane), current number of mol/uc:  30.00000, density:   2.97085 [kg/m^3]
----------------------------------------------------------------------------------------------------------------------------------------------------
Number of Framework-atoms: 0
Number of Adsorbates:      30
Number of Cations:         0

Current total potential energy:              2605.8521606152 [K]
	Current Host-Host energy:                     0.0000000000 [K]
	Current Host-Adsorbate energy:                0.0000000000 [K]
	Current Host-Cation energy:                   0.0000000000 [K]
	Current Adsorbate-Adsorbate energy:        -691.2767165555 [K]
	Current Cation-Cation energy:                 0.0000000000 [K]
	Current Adsorbate-Cation energy:              0.0000000000 [K]



[Init] Current cycle: 2600 out of 5000
========================================================================================================

Net charge: 0 (F: 0, A: 0, C: 0)
Current Box:  79.57079   0.00000   0.00000 [A]
               0.00000  79.57079   0.00000 [A]
               0.00000   0.00000  79.57079 [A]
Box-lengths:  79.57079  79.57079  79.57079 Box-angles:   90.00000  90.00000  90.00000 [degrees]
Volume: 503803.28175 [A^3]

Amount of molecules per component:
----------------------------------------------------------------------------------------------------------------------------------------------------
Component 0 (ethane), current number of mol/uc:  30.00000, density:   2.97323 [kg/m^3]
----------------------------------------------------------------------------------------------------------------------------------------------------
Number of Framework-atoms: 0
Number of Adsorbates:      30
Number of Cations:         0

Current total potential energy:              2153.3024891472 [K]
	Current Host-Host energy:                     0.0000000000 [K]
	Current Host-Adsorbate energy:                0.0000000000 [K]
	Current Host-Cation energy:                   0.0000000000 [K]
	Current Adsorbate-Adsorbate energy:        -281.9304624682 [K]
	Current Cation-Cation energy:                 0.0000000000 [K]
	Current Adsorbate-Cation energy:              0.0000000000 [K]



[Init] Current cycle: 2700 out of 5000
========================================================================================================

Net charge: 0 (F: 0, A: 0, C: 0)
Current Box:  79.57259   0.00000   0.00000 [A]
               0.00000  79.57259   0.00000 [A]
               0.00000   0.00000  79.57259 [A]
Box-lengths:  79.57259  79.57259  79.57259 Box-angles:   90.00000  90.00000  90.00000 [degrees]
Volume: 503837.49915 [A^3]

Amount of molecules per component:
----------------------------------------------------------------------------------------------------------------------------------------------------
Component 0 (ethane), current number of mol/uc:  32.00000, density:   3.17124 [kg/m^3]
----------------------------------------------------------------------------------------------------------------------------------------------------
Number of Framework-atoms: 0
Number of Adsorbates:      32
Number of Cations:         0

Current total potential energy:              1797.3821681837 [K]
	Current Host-Host energy:                     0.0000000000 [K]
	Current Host-Adsorbate energy:                0.0000000000 [K]
	Current Host-Cation energy:                   0.0000000000 [K]
	Current Adsorbate-Adsorbate energy:        -659.0542242252 [K]
	Current Cation-Cation energy:                 0.0000000000 [K]
	Current Adsorbate-Cation energy:              0.0000000000 [K]



[Init] Current cycle: 2800 out of 5000
========================================================================================================

Net charge: 0 (F: 0, A: 0, C: 0)
Current Box:  79.57153   0.00000   0.00000 [A]
               0.00000  79.57153   0.00000 [A]
               0.00000   0.00000  79.57153 [A]
Box-lengths:  79.57153  79.57153  79.57153 Box-angles:   90.00000  90.00000  90.00000 [degrees]
Volume: 503817.39951 [A^3]

Amount of molecules per component:
----------------------------------------------------------------------------------------------------------------------------------------------------
Component 0 (ethane), current number of mol/uc:  35.00000, density:   3.46868 [kg/m^3]
----------------------------------------------------------------------------------------------------------------------------------------------------
Number of Framework-atoms: 0
Number of Adsorbates:      35
Number of Cations:         0

Current total potential energy:              2641.9488735521 [K]
	Current Host-Host energy:                     0.0000000000 [K]
	Current Host-Adsorbate energy:                0.0000000000 [K]
	Current Host-Cation energy:                   0.0000000000 [K]
	Current Adsorbate-Adsorbate energy:        -518.1318211823 [K]
	Current Cation-Cation energy:                 0.0000000000 [K]
	Current Adsorbate-Cation energy:              0.0000000000 [K]



[Init] Current cycle: 2900 out of 5000
========================================================================================================

Net charge: 0 (F: 0, A: 0, C: 0)
Current Box:  79.60435   0.00000   0.00000 [A]
               0.00000  79.60435   0.00000 [A]
               0.00000   0.00000  79.60435 [A]
Box-lengths:  79.60435  79.60435  79.60435 Box-angles:   90.00000  90.00000  90.00000 [degrees]
Volume: 504440.98782 [A^3]

Amount of molecules per component:
----------------------------------------------------------------------------------------------------------------------------------------------------
Component 0 (ethane), current number of mol/uc:  39.00000, density:   3.86032 [kg/m^3]
----------------------------------------------------------------------------------------------------------------------------------------------------
Number of Framework-atoms: 0
Number of Adsorbates:      39
Number of Cations:         0

Current total potential energy:              4027.0817856321 [K]
	Current Host-Host energy:                     0.0000000000 [K]
	Current Host-Adsorbate energy:                0.0000000000 [K]
	Current Host-Cation energy:                   0.0000000000 [K]
	Current Adsorbate-Adsorbate energy:        -289.6988032290 [K]
	Current Cation-Cation energy:                 0.0000000000 [K]
	Current Adsorbate-Cation energy:              0.0000000000 [K]



[Init] Current cycle: 3000 out of 5000
========================================================================================================

Net charge: 0 (F: 0, A: 0, C: 0)
Current Box:  79.58626   0.00000   0.00000 [A]
               0.00000  79.58626   0.00000 [A]
               0.00000   0.00000  79.58626 [A]
Box-lengths:  79.58626  79.58626  79.58626 Box-angles:   90.00000  90.00000  90.00000 [degrees]
Volume: 504097.21010 [A^3]

Amount of molecules per component:
----------------------------------------------------------------------------------------------------------------------------------------------------
Component 0 (ethane), current number of mol/uc:  33.00000, density:   3.26865 [kg/m^3]
----------------------------------------------------------------------------------------------------------------------------------------------------
Number of Framework-atoms: 0
Number of Adsorbates:      33
Number of Cations:         0

Current total potential energy:              3815.6139317587 [K]
	Current Host-Host energy:                     0.0000000000 [K]
	Current Host-Adsorbate energy:                0.0000000000 [K]
	Current Host-Cation energy:                   0.0000000000 [K]
	Current Adsorbate-Adsorbate energy:        -167.5347063754 [K]
	Current Cation-Cation energy:                 0.0000000000 [K]
	Current Adsorbate-Cation energy:              0.0000000000 [K]



[Init] Current cycle: 3100 out of 5000
========================================================================================================

Net charge: 0 (F: 0, A: 0, C: 0)
Current Box:  79.60079   0.00000   0.00000 [A]
               0.00000  79.60079   0.00000 [A]
               0.00000   0.00000  79.60079 [A]
Box-lengths:  79.60079  79.60079  79.60079 Box-angles:   90.00000  90.00000  90.00000 [degrees]
Volume: 504373.42357 [A^3]

Amount of molecules per component:
----------------------------------------------------------------------------------------------------------------------------------------------------
[...]
	Block[ 4]            0.00000 [K]
	------------------------------------------------------------------------------
	Average              0.00000 [K] +/-            0.00000 [K]

Average Adsorbate Intra charge-charge Coulomb energy:
=======================================
	Block[ 0]            0.00000 [K]
	Block[ 1]            0.00000 [K]
	Block[ 2]            0.00000 [K]
	Block[ 3]            0.00000 [K]
	Block[ 4]            0.00000 [K]
	------------------------------------------------------------------------------
	Average              0.00000 [K] +/-            0.00000 [K]

Average Adsorbate Intra charge-bonddipole Coulomb energy:
=======================================
	Block[ 0]            0.00000 [K]
	Block[ 1]            0.00000 [K]
	Block[ 2]            0.00000 [K]
	Block[ 3]            0.00000 [K]
	Block[ 4]            0.00000 [K]
	------------------------------------------------------------------------------
	Average              0.00000 [K] +/-            0.00000 [K]

Average Adsorbate Intra bonddipole-bonddipole Coulomb energy:
=======================================
	Block[ 0]            0.00000 [K]
	Block[ 1]            0.00000 [K]
	Block[ 2]            0.00000 [K]
	Block[ 3]            0.00000 [K]
	Block[ 4]            0.00000 [K]
	------------------------------------------------------------------------------
	Average              0.00000 [K] +/-            0.00000 [K]

Average Cation Bond stretch energy:
=================================
	Block[ 0]            0.00000 [K]
	Block[ 1]            0.00000 [K]
	Block[ 2]            0.00000 [K]
	Block[ 3]            0.00000 [K]
	Block[ 4]            0.00000 [K]
	------------------------------------------------------------------------------
	Average              0.00000 [K] +/-            0.00000 [K]

Average Cation UreyBradley stretch energy:
==========================================
	Block[ 0]            0.00000 [K]
	Block[ 1]            0.00000 [K]
	Block[ 2]            0.00000 [K]
	Block[ 3]            0.00000 [K]
	Block[ 4]            0.00000 [K]
	------------------------------------------------------------------------------
	Average              0.00000 [K] +/-            0.00000 [K]

Average Cation Bend angle energy:
=================================
	Block[ 0]            0.00000 [K]
	Block[ 1]            0.00000 [K]
	Block[ 2]            0.00000 [K]
	Block[ 3]            0.00000 [K]
	Block[ 4]            0.00000 [K]
	------------------------------------------------------------------------------
	Average              0.00000 [K] +/-            0.00000 [K]

Average Cation Bend angle inversion energy:
===========================================
	Block[ 0]            0.00000 [K]
	Block[ 1]            0.00000 [K]
	Block[ 2]            0.00000 [K]
	Block[ 3]            0.00000 [K]
	Block[ 4]            0.00000 [K]
	------------------------------------------------------------------------------
	Average              0.00000 [K] +/-            0.00000 [K]

Average Cation Torsion energy:
==============================
	Block[ 0]            0.00000 [K]
	Block[ 1]            0.00000 [K]
	Block[ 2]            0.00000 [K]
	Block[ 3]            0.00000 [K]
	Block[ 4]            0.00000 [K]
	------------------------------------------------------------------------------
	Average              0.00000 [K] +/-            0.00000 [K]

Average Cation Improper Torsion energy:
=======================================
	Block[ 0]            0.00000 [K]
	Block[ 1]            0.00000 [K]
	Block[ 2]            0.00000 [K]
	Block[ 3]            0.00000 [K]
	Block[ 4]            0.00000 [K]
	------------------------------------------------------------------------------
	Average              0.00000 [K] +/-            0.00000 [K]

Average Cation Bond-Bond cross term energy:
=================================================
	Block[ 0]            0.00000 [K]
	Block[ 1]            0.00000 [K]
	Block[ 2]            0.00000 [K]
	Block[ 3]            0.00000 [K]
	Block[ 4]            0.00000 [K]
	------------------------------------------------------------------------------
	Average              0.00000 [K] +/-            0.00000 [K]

Average Cation Bend-Bend cross term energy:
===========================================
	Block[ 0]            0.00000 [K]
	Block[ 1]            0.00000 [K]
	Block[ 2]            0.00000 [K]
	Block[ 3]            0.00000 [K]
	Block[ 4]            0.00000 [K]
	------------------------------------------------------------------------------
	Average              0.00000 [K] +/-            0.00000 [K]

Average Cation Bond-Bend cross term energy:
==============================================
	Block[ 0]            0.00000 [K]
	Block[ 1]            0.00000 [K]
	Block[ 2]            0.00000 [K]
	Block[ 3]            0.00000 [K]
	Block[ 4]            0.00000 [K]
	------------------------------------------------------------------------------
	Average              0.00000 [K] +/-            0.00000 [K]

Average Cation Bond-Torsion cross term energy:
==============================================
	Block[ 0]            0.00000 [K]
	Block[ 1]            0.00000 [K]
	Block[ 2]            0.00000 [K]
	Block[ 3]            0.00000 [K]
	Block[ 4]            0.00000 [K]
	------------------------------------------------------------------------------
	Average              0.00000 [K] +/-            0.00000 [K]

Average Cation Bend-Torsion cross term energy:
==============================================
	Block[ 0]            0.00000 [K]
	Block[ 1]            0.00000 [K]
	Block[ 2]            0.00000 [K]
	Block[ 3]            0.00000 [K]
	Block[ 4]            0.00000 [K]
	------------------------------------------------------------------------------
	Average              0.00000 [K] +/-            0.00000 [K]

Average Cation Intra Van der Waals energy:
==========================================
	Block[ 0]            0.00000 [K]
	Block[ 1]            0.00000 [K]
	Block[ 2]            0.00000 [K]
	Block[ 3]            0.00000 [K]
	Block[ 4]            0.00000 [K]
	------------------------------------------------------------------------------
	Average              0.00000 [K] +/-            0.00000 [K]

Average Cation Intra charge-charge Coulomb energy:
====================================
	Block[ 0]            0.00000 [K]
	Block[ 1]            0.00000 [K]
	Block[ 2]            0.00000 [K]
	Block[ 3]            0.00000 [K]
	Block[ 4]            0.00000 [K]
	------------------------------------------------------------------------------
	Average              0.00000 [K] +/-            0.00000 [K]

Average Cation Intra charge-bonddipole Coulomb energy:
====================================
	Block[ 0]            0.00000 [K]
	Block[ 1]            0.00000 [K]
	Block[ 2]            0.00000 [K]
	Block[ 3]            0.00000 [K]
	Block[ 4]            0.00000 [K]
	------------------------------------------------------------------------------
	Average              0.00000 [K] +/-            0.00000 [K]

Average Cation Intra bonddipole-bonddipole Coulomb energy:
====================================
	Block[ 0]            0.00000 [K]
	Block[ 1]            0.00000 [K]
	Block[ 2]            0.00000 [K]
	Block[ 3]            0.00000 [K]
	Block[ 4]            0.00000 [K]
	------------------------------------------------------------------------------
	Average              0.00000 [K] +/-            0.00000 [K]

Average Host-Host energy:
=========================
	Block[ 0] 0.00000            Van der Waals: 0.00000            Coulomb: 0.00000            [K]
	Block[ 1] 0.00000            Van der Waals: 0.00000            Coulomb: 0.00000            [K]
	Block[ 2] 0.00000            Van der Waals: 0.00000            Coulomb: 0.00000            [K]
	Block[ 3] 0.00000            Van der Waals: 0.00000            Coulomb: 0.00000            [K]
	Block[ 4] 0.00000            Van der Waals: 0.00000            Coulomb: 0.00000            [K]
	------------------------------------------------------------------------------
	Average   0.00000            Van der Waals: 0.000000           Coulomb: 0.00000            [K]
	      +/- 0.00000                       +/- 0.000000                +/- 0.00000            [K]

Average Adsorbate-Adsorbate energy:
===================================
	Block[ 0] -313.20864         Van der Waals: -313.20864         Coulomb: 0.00000            [K]
	Block[ 1] -535.34687         Van der Waals: -535.34687         Coulomb: 0.00000            [K]
	Block[ 2] -379.79180         Van der Waals: -379.79180         Coulomb: 0.00000            [K]
	Block[ 3] -419.22435         Van der Waals: -419.22435         Coulomb: 0.00000            [K]
	Block[ 4] -602.84272         Van der Waals: -602.84272         Coulomb: 0.00000            [K]
	------------------------------------------------------------------------------
	Average   -450.08288         Van der Waals: -450.082876        Coulomb: 0.00000            [K]
	      +/- 210.20592                     +/- 210.205918              +/- 0.00000            [K]

Average Cation-Cation energy:
=============================
	Block[ 0] 0.00000            Van der Waals: 0.00000            Coulomb: 0.00000            [K]
	Block[ 1] 0.00000            Van der Waals: 0.00000            Coulomb: 0.00000            [K]
	Block[ 2] 0.00000            Van der Waals: 0.00000            Coulomb: 0.00000            [K]
	Block[ 3] 0.00000            Van der Waals: 0.00000            Coulomb: 0.00000            [K]
	Block[ 4] 0.00000            Van der Waals: 0.00000            Coulomb: 0.00000            [K]
	------------------------------------------------------------------------------
	Average   0.00000            Van der Waals: 0.000000           Coulomb: 0.00000            [K]
	      +/- 0.00000                       +/- 0.000000                +/- 0.00000            [K]

Average Host-Adsorbate energy:
==============================
	Block[ 0] 0.00000            Van der Waals: 0.00000            Coulomb: 0.00000            [K]
	Block[ 1] 0.00000            Van der Waals: 0.00000            Coulomb: 0.00000            [K]
	Block[ 2] 0.00000            Van der Waals: 0.00000            Coulomb: 0.00000            [K]
	Block[ 3] 0.00000            Van der Waals: 0.00000            Coulomb: 0.00000            [K]
	Block[ 4] 0.00000            Van der Waals: 0.00000            Coulomb: 0.00000            [K]
	------------------------------------------------------------------------------
	Average   0.00000            Van der Waals: 0.000000           Coulomb: 0.00000            [K]
	      +/- 0.00000                       +/- 0.000000                +/- 0.00000            [K]

Average Host-Cation energy:
===========================
	Block[ 0] 0.00000            Van der Waals: 0.00000            Coulomb: 0.00000            [K]
	Block[ 1] 0.00000            Van der Waals: 0.00000            Coulomb: 0.00000            [K]
	Block[ 2] 0.00000            Van der Waals: 0.00000            Coulomb: 0.00000            [K]
	Block[ 3] 0.00000            Van der Waals: 0.00000            Coulomb: 0.00000            [K]
	Block[ 4] 0.00000            Van der Waals: 0.00000            Coulomb: 0.00000            [K]
	------------------------------------------------------------------------------
	Average   0.00000            Van der Waals: 0.000000           Coulomb: 0.00000            [K]
	      +/- 0.00000                       +/- 0.000000                +/- 0.00000            [K]

Average Adsorbate-Cation energy:
================================
	Block[ 0] 0.00000            Van der Waals: 0.00000            Coulomb: 0.00000            [K]
	Block[ 1] 0.00000            Van der Waals: 0.00000            Coulomb: 0.00000            [K]
	Block[ 2] 0.00000            Van der Waals: 0.00000            Coulomb: 0.00000            [K]
	Block[ 3] 0.00000            Van der Waals: 0.00000            Coulomb: 0.00000            [K]
	Block[ 4] 0.00000            Van der Waals: 0.00000            Coulomb: 0.00000            [K]
	------------------------------------------------------------------------------
	Average   0.00000            Van der Waals: 0.000000           Coulomb: 0.00000            [K]
	      +/- 0.00000                       +/- 0.000000                +/- 0.00000            [K]

Host polarization energy:
=======================
	Block[ 0]            0.00000 [K]
	Block[ 1]            0.00000 [K]
	Block[ 2]            0.00000 [K]
	Block[ 3]            0.00000 [K]
	Block[ 4]            0.00000 [K]
	------------------------------------------------------------------------------
	Average              0.00000 [K] +/-            0.00000 [K]

Adsorbate polarization energy:
=======================
	Block[ 0]            0.00000 [K]
	Block[ 1]            0.00000 [K]
	Block[ 2]            0.00000 [K]
	Block[ 3]            0.00000 [K]
	Block[ 4]            0.00000 [K]
	------------------------------------------------------------------------------
	Average              0.00000 [K] +/-            0.00000 [K]

Cation polarization energy:
=======================
	Block[ 0]            0.00000 [K]
	Block[ 1]            0.00000 [K]
	Block[ 2]            0.00000 [K]
	Block[ 3]            0.00000 [K]
	Block[ 4]            0.00000 [K]
	------------------------------------------------------------------------------
	Average              0.00000 [K] +/-            0.00000 [K]

Host back-polarization energy:
=======================
	Block[ 0]            0.00000 [K]
	Block[ 1]            0.00000 [K]
	Block[ 2]            0.00000 [K]
	Block[ 3]            0.00000 [K]
	Block[ 4]            0.00000 [K]
	------------------------------------------------------------------------------
	Average              0.00000 [K] +/-            0.00000 [K]

Adsorbate back-polarization energy:
=======================
	Block[ 0]            0.00000 [K]
	Block[ 1]            0.00000 [K]
	Block[ 2]            0.00000 [K]
	Block[ 3]            0.00000 [K]
	Block[ 4]            0.00000 [K]
	------------------------------------------------------------------------------
	Average              0.00000 [K] +/-            0.00000 [K]

Cation back-polarization energy:
=======================
	Block[ 0]            0.00000 [K]
	Block[ 1]            0.00000 [K]
	Block[ 2]            0.00000 [K]
	Block[ 3]            0.00000 [K]
	Block[ 4]            0.00000 [K]
	------------------------------------------------------------------------------
	Average              0.00000 [K] +/-            0.00000 [K]

Tail-correction energy:
=======================
	Block[ 0]           -8.73753 [K]
	Block[ 1]          -12.48825 [K]
	Block[ 2]          -10.00404 [K]
	Block[ 3]          -10.68697 [K]
	Block[ 4]          -15.31734 [K]
	------------------------------------------------------------------------------
	Average            -11.44682 [K] +/-            4.56637 [K]

Distance-constraints energy:
=======================
	Block[ 0]            0.00000 [K]
	Block[ 1]            0.00000 [K]
	Block[ 2]            0.00000 [K]
	Block[ 3]            0.00000 [K]
	Block[ 4]            0.00000 [K]
	------------------------------------------------------------------------------
	Average              0.00000 [K] +/-            0.00000 [K]

Angle-constraints energy:
=======================
	Block[ 0]            0.00000 [K]
	Block[ 1]            0.00000 [K]
	Block[ 2]            0.00000 [K]
	Block[ 3]            0.00000 [K]
	Block[ 4]            0.00000 [K]
	------------------------------------------------------------------------------
	Average              0.00000 [K] +/-            0.00000 [K]

Dihedral-constraints energy:
=======================
	Block[ 0]            0.00000 [K]
	Block[ 1]            0.00000 [K]
	Block[ 2]            0.00000 [K]
	Block[ 3]            0.00000 [K]
	Block[ 4]            0.00000 [K]
	------------------------------------------------------------------------------
	Average              0.00000 [K] +/-            0.00000 [K]

Inversion-bend constraints energy:
=======================
	Block[ 0]            0.00000 [K]
	Block[ 1]            0.00000 [K]
	Block[ 2]            0.00000 [K]
	Block[ 3]            0.00000 [K]
	Block[ 4]            0.00000 [K]
	------------------------------------------------------------------------------
	Average              0.00000 [K] +/-            0.00000 [K]

Out-of-plane-distance constraints energy:
=======================
	Block[ 0]            0.00000 [K]
	Block[ 1]            0.00000 [K]
	Block[ 2]            0.00000 [K]
	Block[ 3]            0.00000 [K]
	Block[ 4]            0.00000 [K]
	------------------------------------------------------------------------------
	Average              0.00000 [K] +/-            0.00000 [K]

Exclusion-constraints energy:
=======================
	Block[ 0]            0.00000 [K]
	Block[ 1]            0.00000 [K]
	Block[ 2]            0.00000 [K]
	Block[ 3]            0.00000 [K]
	Block[ 4]            0.00000 [K]
	------------------------------------------------------------------------------
	Average              0.00000 [K] +/-            0.00000 [K]

Total energy:
=============
	Block[ 0]         2328.83549 [K]
	Block[ 1]         2728.50809 [K]
	Block[ 2]         2398.59433 [K]
	Block[ 3]         2523.02801 [K]
	Block[ 4]         2832.09077 [K]
	------------------------------------------------------------------------------
	Average           2562.21134 [K] +/-          382.89389 [K]

Number of molecules:
====================

Component 0 [ethane]
-------------------------------------------------------------
	Block[ 0] 28.69050           [-]
	Block[ 1] 34.33800           [-]
	Block[ 2] 30.48450           [-]
	Block[ 3] 31.18700           [-]
	Block[ 4] 38.08600           [-]
	------------------------------------------------------------------------------
	Average                                     32.5572000000 +/-       6.6250301313 [-]
	Average loading absolute [molecules/unit cell]       32.5572000000 +/-       6.6250301313 [-]
	Average loading absolute [mol/kg framework]                   inf +/-                inf [-]
	Average loading absolute [milligram/gram framework]                   inf +/-                inf [-]
	Average loading absolute [cm^3 (STP)/gr framework]                   inf +/-                inf [-]
	Average loading absolute [cm^3 (STP)/cm^3 framework]          2.3667097106 +/-       0.4815992513 [-]

	Block[ 0] 28.69050           [-]
	Block[ 1] 34.33800           [-]
	Block[ 2] 30.48450           [-]
	Block[ 3] 31.18700           [-]
	Block[ 4] 38.08600           [-]
	------------------------------------------------------------------------------
	Average                                     32.5572000000 +/-       6.6250301313 [-]
	Average loading excess [molecules/unit cell]       32.5572000000 +/-       6.6250301313 [-]
	Average loading excess [mol/kg framework]                   inf +/-                inf [-]
	Average loading excess [milligram/gram framework]                   inf +/-                inf [-]
	Average loading excess [cm^3 (STP)/gr framework]                   inf +/-                inf [-]
	Average loading excess [cm^3 (STP)/cm^3 framework]          2.3667097106 +/-       0.4815992513 [-]


Average Widom Rosenbluth factor:
================================
	Block[ 0] 0 [-]
	Block[ 1] 0 [-]
	Block[ 2] 0 [-]
	Block[ 3] 0 [-]
	Block[ 4] 0 [-]
	------------------------------------------------------------------------------
	[ethane] Average Widom:   0 +/- 0.000000 [-]

Average Henry coefficient:
==========================
	Block[ 0] 0 [mol/kg/Pa]
	Block[ 1] 0 [mol/kg/Pa]
	Block[ 2] 0 [mol/kg/Pa]
	Block[ 3] 0 [mol/kg/Pa]
	Block[ 4] 0 [mol/kg/Pa]
	------------------------------------------------------------------------------
	[ethane] Average Henry coefficient:  0 +/- 0 [mol/kg/Pa]

Average adsorption energy <U_gh>_1-<U_h>_0 obtained from Widom-insertion:
(Note: the total heat of adsorption is dH=<U_gh>_1-<U_h>_0 - <U_g> - RT)
=========================================================================

Simulation finished,  0 warnings
