Compiler and run-time data
===========================================================================
RASPA 0.99-480
Compiled as a 64-bits application
Compiler: gcc 4.2.1 (Based on Apple Inc. build 5658) (LLVM build 2336.1.00)
Compile Date = Dec  9 2011, Compile Time = 17:21:59

Fri Dec  9 17:36:32 2011
Simulation started on Friday, December 09.
The start time was 05:36 PM.

Cpu data:    x86_64
Cpu Model:   MacBookPro6,2
Host name:   Davids-MacBook-Pro.local
OS release:  11.2.0
OS type:     Darwin
OS version:  11C74


Simulation
===========================================================================
Dimensions: 3
Random number seed: 1323448592
RASPA directory set to: /Users/dubbelda/RASPA/simulations/
String appended to output-files: 
Number of cycles: 25000
Number of initializing cycles: 100
Number of equilibration cycles: 5000
Print every: 100
Triclinic boundary condition applied
Timestep: 0.000500
Initialization Ensemble: NVT (constant number of particles N, constant volume V, constant average temperature T)
Production run ensemble: NVT (constant number of particles N, constant volume V, constant average temperature T)
	Degrees of freedom:                        3072
	Translational Degrees of freedom:          1536
	Rotational Degrees of freedom:             1536
	Degrees of freedom Framework:              0


Mutual consistent basic set of units:
======================================
Unit of temperature: Kelvin
Unit of length:      1e-10 [m]
Unit of time:        1e-12 [s]
Unit of mass:        1.66054e-27 [kg]
Unit of charge:      1.60218e-19 [C/particle]

Derived units and their conversion factors:
===========================================
Unit of energy:              1.66054e-23 [J]
Unit of force:               1.66054e-13 [N]
Unit of pressure:            1.66054e+07 [Pa]
Unit of velocity:            100 [m/s]
Unit of acceleration:        1e-08 [m^2/s]
Unit of diffusion:           1e-08 [m^2/s]
Unit of dipole moment:       1.60218e-29 [C.m]
Unit of electric potential:  0.000103643 [V]
Unit of electric field:      1.03643e+06 [V]
Unit of polarizability:      1.54587e-35 [-]
Unit of Coulomb potential:   167101.0800066561  [K]
Unit of dielectric constant: 0.0000154587       [s^2 C^2/(kg m^3)]
Unit of wave vectors:        5.3088374589       [cm^1]
Boltzmann constant:          0.8314464919       [-]

Internal conversion factors:
===========================================
Energy to Kelvin:                                    1.2027242847
FH correction factor                                 2.0211930949
Heat capacity conversion factor:                    10.0000088723
From Debye to internal units:                        4.8032067991
Isothermal compressibility conversion factor:        0.0000000602

Energy conversion factors:
===========================================
From mdyne/A to kcal/mol/A^2:           143.933
From mdyne/A to kj/mol/A^2:             602.214
From mdyne/A to K/A^2:                  72429.7
From mdyne A/rad^2 to kcal/mol/deg^2:   0.0438444


Properties computed
===========================================================================
Movies: no
Radial Distribution Function: yes
	RDF is written to file every 1000 cycles
	Upper limit of the rdf histogram: 12.000000 [A]
	Size of the RDF histogram: 500
Number of molecules GCMC histogram: no
Histogram of the molecule positions: no
Free energy profiles: no
Pore Size Distribution Function: no
End-to-end distance: no
Histogram of the energy of the system: no
Compute thermodynamic factors: no
Framework spacing histograms: no
Residence times histograms: no
Distance histograms: no
Bend Angle histograms: no
Dihedral angle histograms: no
Angle between planes histograms: no
Molecule properties: no
Infra-red spectra: no
Mean-squared displacement using modified order-N algorithm: no
Velocity-autocorrelation function modified order-N algorithm: no
Rotational velocity-autocorrelation function modified order-N algorithm: no
Molecular orientation-autocorrelation function modified order-N algorithm: no
Mean-squared displacement (conventional algorithm): no
Velocity-autocorrelation function (conventional algorithm): no
3D density grid for adsorbates: no
Compute cation an/or adsorption sites: no
dcTST snapshots: no
Compute pressure and stress: no


Thermo/Baro-stat NHC parameters
===========================================================================
External temperature: 298.000000 [K]
Beta: 0.004036 [energy unit]
External Pressure: 0.000000 [Pa]


Thermostat chain-length: 3
Timescale parameter for thermostat: 0.150000 [ps]
Barostat chain-length:   3
Timescale parameter for barostat:   0.150000 [ps]

Number of Yoshida-Suzuki decomposition steps: 5
Number of respa steps: 5


Method and settings for electrostatics
===============================================================================
Dielectric constant of the medium : 1.000000
Charge from charge-equilibration: no
Ewald summation is used (exact solution of a periodic system)
Relative precision                : 1e-06
Alpha convergence parameter       : 0.265058
kvec (x,y,z)                      : 7 7 7


Rattle parameters
===========================================================================
Distance constraint type: r^2-r^2_0
Bend angle constraint type: theta-theta_0
Dihedral angle constraint type: phi-phi_0
Inversion-bend angle constraint type: chi-chi_0
Out-of-plane distance constraint type: r-r_0


Spectra parameters
===========================================================================
Compute normal modes: no


Minimization parameters
===========================================================================
Generalized coordinates are: Cartesian center-of-mass, elements of the orientational matrix p1,p2,p3 and strain
Potential derivatives are evaluated: analytically
Translation of the system is removed from the generalized Hessian: no
Rotation of the system is removed from the generalized Hessian: no
Maximum step-length: 0.3
Convergence factor: 1
Maximum number of minimization steps: 10000
Use gradients in the line-minimizations: yes
RMS gradient tolerance: 1e-06
Maximum gradient tolerance: 1e-06

Distance constraints: 0
Angle constraints: 0
Dihedral constraints: 0

Improper dihedral constraints: 0

Inversion-bend constraints: 0

Out-of-plane constraints: 0

Harmonic distance constraints: 0
Harmonic angle constraints: 0
Harmonic dihedral constraints: 0

Dihedral mid-point measurements: 0

All framework atoms are fixed

Fixed adsorbate atoms:  
Fixed adsorbate groups (center-of-mass):  
Fixed adsorbate groups (orientation):  

Fixed cation atoms:  
Fixed cation groups (center-of-mass):  
Fixed cation groups (orientation):  


dcTST parameters
===========================================================================
Free energy profiles computed: no
Free energy profiles written every 5000 cycles
Free energy mapping: mapped to a,b,c-coordinates
BarrierPosition:       0.0000000000       0.0000000000       0.0000000000
BarrierNormal:         0.0000000000       0.0000000000       0.0000000000
Start with a molecule on top of the barrier: no
Maximum distance to barrier (e.g. distance to minumum free energy):       0.0000000000 [A]
Maximum trajectory time:      10.0000000000 [ps]
Each configuration is used with 5 different initial velocities


Cbmc parameters
===========================================================================
Biasing method: using only the VDW part
Number of trial positions:                             10
Number of trial positions coupled Torsion-selection:   100
Number of trial position for the first bead:           10
Number of trial moves per open bead:                   150
Target acceptance ratio small-mc scheme:               0.400000
Energy overlap criteria:                               100000
Minimal Rosenbluth factor:                             1e-150


Pseudo atoms: 4
===========================================================================
Pseudo Atom[   0] Name UNIT     Oxidation: -        Element: -    pdb-name: H    Scat. Types:   0   1 Mass=1.000000000  B-factor:1.000   
                 Charge=1.000000000   Polarization=0.000000000  [A^3] (considered a charged atom and no polarization)  Interactions: yes
                 Anisotropic factor:    0.000 [-] (Absolute), Radius:    1.000 [A]
Pseudo Atom[   1] Name Ow       Oxidation: -        Element: O    pdb-name: O    Scat. Types:   9   8 Mass=15.999600000 B-factor:1.000   
                 Charge=0.000000000   Polarization=0.000000000  [A^3] (considered a chargeless atom and no polarization)  Interactions: yes
                 Anisotropic factor:    0.000 [-] (Absolute), Radius:    0.500 [A]
Pseudo Atom[   2] Name Hw       Oxidation: -        Element: H    pdb-name: H    Scat. Types:   1   1 Mass=1.000800000  B-factor:1.000   
                 Charge=0.241000000   Polarization=0.000000000  [A^3] (considered a charged atom and no polarization)  Interactions: yes
                 Anisotropic factor:    0.000 [-] (Absolute), Radius:    1.000 [A]
Pseudo Atom[   3] Name Lw       Oxidation: -        Element: -    pdb-name: L    Scat. Types:   0   3 Mass=0.000000000  B-factor:1.000   
                 Charge=-0.241000000  Polarization=0.000000000  [A^3] (considered a charged atom and no polarization)  Interactions: yes
                 Anisotropic factor:    0.000 [-] (Absolute), Radius:    1.000 [A]


Forcefield: Local
===========================================================================
CutOff VDW : 12.000000 (144.000000)
CutOff VDW switching on: 10.800000 (116.640000)
CutOff charge-charge : 12.000000 (144.000000)
CutOff charge-charge switching on: 7.800000 (60.840000)
CutOff charge-bonddipole : 12.000000 (144.000000)
CutOff charge-bondipole switching on: 8.400000 (70.560000)
CutOff bonddipole-bonddipole : 12.000000 (144.000000)
CutOff bonddipole-bondipole switching on: 9.000000 (81.000000)
Polarization is neglected
All potentials are shifted to zero at the Cutoff

General mixing rule: Jorgensen mixing rules are used FIRST for cross terms
0 cross terms are overwritten using the individual mixing rules from the file 'force_field_mixing_rules.def'
and then 0 terms are overwritten using the specific interactions from the file 'force_field.def'

The force field and all the interactions:
   UNIT -      Hw [ZERO_POTENTIAL]
   UNIT -      Lw [ZERO_POTENTIAL]
     Ow -      Ow [LENNARD_JONES] p_0/k_B:  89.63300 [K], p_1: 3.09700 [A], shift/k_B:  -0.10591545 [K], tailcorrection: no
     Ow -      Hw [ZERO_POTENTIAL]
     Ow -      Lw [ZERO_POTENTIAL]
     Hw -      Hw [ZERO_POTENTIAL]
     Hw -      Lw [ZERO_POTENTIAL]
     Lw -      Lw [ZERO_POTENTIAL]


MoleculeDefinitions:
===========================================================================
Component 0 [Tip5p] (Adsorbate molecule)

	MoleculeDefinitions: Water
	Component contains (at least some) atoms which are charged
	Component contains no atoms with point dipoles (polarization)
	Component has a net charge of 0.000000

	Ideal chain Rosenbluth weight: 1.000000
	Ideal chain total energy: 0.000000

	Critical temparure [K]: 304.128200
	Critical pressure [Pa]: 7377300.000000
	Acentric factor [-]: 0.223940

	Vapour=stable, Liquid=metastable

	MolFraction:           1.0000000000 [-]
	Compressibility:       0.0000000000 [-]

	Density of the bulk fluid phase:       0.0000000000 [kg/m^3]

	Amount of excess molecules:       0.0000000000 [-]

	Conversion factor molecules/unit cell -> mol/kg:                inf [-]
	Conversion factor molecules/unit cell -> gr/gr:                inf [-]
	Conversion factor molecules/unit cell -> cm^3 STP/gr:                inf [-]
	Conversion factor molecules/unit cell -> cm^3 STP/cm^3:       2.4312955074 [-]
	Conversion factor mol/kg -> cm^3 STP/gr:      22.4139757476 [-]
	Conversion factor mol/kg -> cm^3 STP/cm^3:       0.0000000000 [-]

	Partial pressure: -16605402.0000000000 [Pa]
	                  -124540.5150000000 [Torr]
	                     -166.0540200000 [bar]
	                     -163.8825758697 [atm]

	Fugacity coefficient:      -1.0000000000 [-]

	Partial fugacity: 16605402.0000000000 [Pa]
	                   124540.5150000000 [Torr]
	                      166.0540200000 [bar]
	                      163.8825758697 [atm]

	Molecule contains 5 number of atoms
		atom:    0  is of type:    1 [        Ow] (group: 0)
		atom:    1  is of type:    2 [        Hw] (group: 0)
		atom:    2  is of type:    2 [        Hw] (group: 0)
		atom:    3  is of type:    3 [        Lw] (group: 0)
		atom:    4  is of type:    3 [        Lw] (group: 0)

	Molecule contains 0 chirality centers

	Molecule contains 1 number of groups

		group: 0 containing: 5 elements
		-------------------------------------------------
		the group is rigid and nonlinear
		Mass: 18.001200 [a.u.]
		Mass: 1.952632 [kg/m^3]

		Rotational Degrees of freedom: 3
		Diagonalized inertia vector:       1.7575330830
		                                   1.1468643540
		                                   0.6106687291
		element: 0 atom: 0 [        Ow] Charge:  0.000000 Anisotropy: 0.000000 Position:  0.000000  0.065146  0.000000 Connectivity: 4 (1 2 3 4 )
		element: 1 atom: 1 [        Hw] Charge:  0.241000 Anisotropy: 0.000000 Position:  0.000000 -0.520737 -0.756950 Connectivity: 1 (0 )
		element: 2 atom: 2 [        Hw] Charge:  0.241000 Anisotropy: 0.000000 Position:  0.000000 -0.520737  0.756950 Connectivity: 1 (0 )
		element: 3 atom: 3 [        Lw] Charge: -0.241000 Anisotropy: 0.000000 Position: -0.571543  0.469297  0.000000 Connectivity: 1 (0 )
		element: 4 atom: 4 [        Lw] Charge: -0.241000 Anisotropy: 0.000000 Position:  0.571543  0.469297  0.000000 Connectivity: 1 (0 )

		Dipole:           2.2920719009 [D]
		Quadrupole:      -1.4784799135      -0.1672211827       1.6457010962 [D Angstrom]
		Quadrupole tensor [D Angstrom]
				      -1.4784799135       0.0000000000       0.0000000000
				       0.0000000000      -0.1672211827       0.0000000000
				       0.0000000000       0.0000000000       1.6457010962

	Starting bead for growth               : 0

	Number of atoms                        : 5

	Number of constraint bonds             : 0
	Number of constraint bends             : 0
	Number of constraint inversion bends   : 0
	Number of constraint torsions          : 0
	Number of constraint improper torsions : 0
	Number of constraint improper torsions : 0

	Number of bonds                        : 4
	Number of Urey-Bradleys                : 0
	Number of bends                        : 0
	Number of inversion bends              : 0
	Number of torsions                     : 0
	Number of improper torsions            : 0
	Number of improper torsions            : 0

	Number of bond/bond cross terms        : 0
	Number of bond/bend cross terms        : 0
	Number of bend/bend cross terms        : 0
	Number of stretch/torsion cross terms  : 0
	Number of bend/torsion cross terms     : 0

	Number of charges                      : 4
	Number of bond-dipoles                 : 0

	Number of intra Van der Waals                             : 0
	Number of intra charge-charge Coulomb                     : 0
	Number of intra charge-bonddipole Coulomb                 : 0
	Number of intra bonddipole-bonddipole Coulomb             : 0

	Number of excluded intra charge-charge Coulomb                     : 6
	Number of excluded intra charge-bonddipole Coulomb                 : 0
	Number of excluded intra bonddipole-bonddipole Coulomb             : 0

	Number of cbmc-config moves                               : 0

	Particle Moves:             
		ProbabilityTranslationMove:                  25.000000
			TranslationDirection:      XYZ
		Percentage of random translation moves:       0.000000
		Percentage of rotation moves:                 25.000000
		Percentage of partial reinsertion moves:      0.000000
		Percentage of regrow moves:                   50.000000
		Percentage of regrow-in-place moves:          0.000000
		Percentage of regrow-in-plane moves:          0.000000
		Percentage of identity-change moves:          0.000000
		Percentage of swap (insert/delete) moves:     0.000000
		Percentage of Widom insertion moves:          0.000000
		Percentage of surface-area moves:             0.000000
		Percentage of Gibbs particle-transfer moves:  0.000000
		Percentage of Gibbs identity-change moves:    0.000000

	System Moves (percentage per cycle):
		Percentage of parallel-tempering moves:       0.000000
		Percentage of hyper-parallel-tempering moves: 0.000000
		Percentage of parallel-mol-fraction moves:    0.000000
			   Component A: 0 B: 1
		Percentage of chiral inversion moves:         0.000000
		Percentage of volume-change moves:            0.000000
		Percentage of box-shape-change moves:         0.000000
		Percentage of Gibbs volume-change moves:      0.000000
		Percentage of Hybrid-NVE moves:               0.000000
		Percentage of Hybrid-NPH moves:               0.000000
		Percentage of Hybrid-NPHPR moves:             0.000000
		Percentage of framework-change moves:         0.000000
		Percentage of framework-shift moves:          0.000000

	Moves are restricted to a box: No

	No biased sampling used for this component

	Number of Bonds: 4
	--------------------------------------------
	Bond interaction 0: A=0 B=1 Type:RIGID_BOND
		r_0=0.9572000000       [A]
	Bond interaction 1: A=0 B=2 Type:RIGID_BOND
		r_0=0.9572000000       [A]
	Bond interaction 2: A=0 B=3 Type:RIGID_BOND
		r_0=0.7000000000       [A]
	Bond interaction 3: A=0 B=4 Type:RIGID_BOND
		r_0=0.7000000000       [A]


	number of identity-config changes: 1
	--------------------------------------------
	nr fixed 1: 0 

	Number of pockets blocked in a unitcell: 0
		Pockets are NOT blocked for this component



System Properties
===========================================================================
Unit cell size: 24.830000 24.830000 24.830000
Cell angles (radians)  alpha: 1.570796 beta: 1.570796 gamma: 1.570796
Cell angles (degrees)  alpha: 90.000000 beta: 90.000000 gamma: 90.000000
Number of unitcells [a]: 1
Number of unitcells [b]: 1
Number of unitcells [c]: 1

TRICLINIC Boundary conditions: alpha!=90 or beta!=90 or gamma!=90

Cartesian axis A is collinear with crystallographic axis a
Cartesian axis B is collinear with (axb)xA
Cartesian axis C is collinear with (axb)

lengths of cell vectors:
 24.83000  24.83000  24.83000
cosines of cell angles:
  0.00000   0.00000   0.00000
perpendicular cell widths:
 24.83000  24.83000  24.83000
volume of the cell: 15308.412586999997 (A^3)

Orthogonalization matrix Box
Transforms fractional coordinates abc into orthonormal Cartesian coordinates xyz
Deorthogonalization matrix InverseBox
Transforms orthonormal Cartesian coordinates xyz into fractional coordinates xyz

Box[0]:
	   24.830000000000     0.000000000000     0.000000000000
	    0.000000000000    24.830000000000     0.000000000000
	    0.000000000000     0.000000000000    24.830000000000

Inverse box[0]:
	    0.040273862263     0.000000000000     0.000000000000
	    0.000000000000     0.040273862263     0.000000000000
	    0.000000000000     0.000000000000     0.040273862263


Unitcell box[0]:
	   24.830000000000     0.000000000000     0.000000000000
	    0.000000000000    24.830000000000     0.000000000000
	    0.000000000000     0.000000000000    24.830000000000

Unitcell inverse box[0]:
	    0.040273862263    -0.000000000000    -0.000000000000
	    0.000000000000     0.040273862263    -0.000000000000
	    0.000000000000     0.000000000000     0.040273862263

lengths of cell vectors (inverse box):
  0.04027   0.04027   0.04027
cosines of cell angles (inverse box):
 -0.00000  -0.00000  -0.00000
perpendicular cell widths (inverse):
  0.04027   0.04027   0.04027
volume of the cell: 15308.412586999997 (A^3)

No replicas are used
Framework is simulated as 'rigid'
Number of framework atoms: 0
Number of framework atoms in the unit cell: 0
Framework Mass:     0.000000000000 [g/mol]
Framework Density:     0.000000000000 [kg/m^3]                inf [cm^3/g]
Helium void fraction:    0.00000000
Available pore volume:    0.00000000 [A^3]           nan [cm^3/g]
Conversion factor from molecule/unit cell -> kmol/m^3: 0.108472, kmol/m^3 accesible pore volume: inf

Number Of Frameworks (per system): 0
----------------------------------------------------------------------

Current Atom Status
===========================================================================
Number of framework atoms        : 0
Number of cations molecules      : 0
Number of adsorbate molecules    : 512
Component    0 :  512 molecules
Pseudo Atoms    0 [    UNIT]:    0 atoms
Pseudo Atoms    1 [      Ow]:  512 atoms
Pseudo Atoms    2 [      Hw]: 1024 atoms
Pseudo Atoms    3 [      Lw]: 1024 atoms


Current (running) Energy Status
===========================================================================

Internal energy:
Host stretch energy:                                               0.00000
Host UreyBradley energy:                                           0.00000
Host bend energy:                                                  0.00000
Host inversion-bend energy:                                        0.00000
Host torsion energy:                                               0.00000
Host improper torsion energy:                                      0.00000
Host out-of-plane energy:                                          0.00000
Host stretch/stretch energy:                                       0.00000
Host bend/bend energy:                                             0.00000
Host stretch/bend energy:                                          0.00000
Host stretch/torsion energy:                                       0.00000
Host bend/torsion energy:                                          0.00000

Adsorbate stretch energy:                                          0.00000
Adsorbate UreyBradley energy:                                      0.00000
Adsorbate bend energy:                                             0.00000
Adsorbate inversion-bend energy:                                   0.00000
Adsorbate torsion energy:                                          0.00000
Adsorbate improper torsion energy:                                 0.00000
Adsorbate out-of-plane energy:                                     0.00000
Adsorbate stretch/stretch energy:                                  0.00000
Adsorbate bend/bend energy:                                        0.00000
Adsorbate stretch/bend energy:                                     0.00000
Adsorbate stretch/torsion energy:                                  0.00000
Adsorbate bend/torsion energy:                                     0.00000
Adsorbate intra VDW energy:                                        0.00000
Adsorbate intra charge-charge Coulomb energy:                      0.00000
Adsorbate intra charge-bonddipole Coulomb energy:                  0.00000
Adsorbate intra bonddipole-bonddipole Coulomb energy:              0.00000

Cation stretch energy:                                             0.00000
Cation UreyBradley energy:                                         0.00000
Cation bend energy:                                                0.00000
Cation inversion-bend energy:                                      0.00000
Cation torsion energy:                                             0.00000
Cation improper torsion energy:                                    0.00000
Cation out-of-plane energy:                                        0.00000
Cation stretch/stretch energy:                                     0.00000
Cation bend/bend energy:                                           0.00000
Cation stretch/bend energy:                                        0.00000
Cation stretch/torsion energy:                                     0.00000
Cation bend/torsion energy:                                        0.00000
Cation intra VDW energy:                                           0.00000
Cation intra charge-charge Coulomb energy:                         0.00000
Cation intra charge-bonddipole Coulomb energy:                     0.00000
Cation intra bonddipole-bonddipole Coulomb energy:                 0.00000

Host/Host energy:                                                0.00000
	Host/Host VDW energy:                                            0.00000
	Host/Host Coulomb energy:                                        0.00000
	Host/Host charge-charge Real energy:                             0.00000
	Host/Host charge-charge Fourier energy:                          0.00000
	Host/Host charge-bonddipole Real energy:                         0.00000
	Host/Host charge-bonddipole Fourier energy:                      0.00000
	Host/Host bondipole-bonddipole Real energy:                      0.00000
	Host/Host bondipole-bonddipole Fourier energy:                   0.00000

Host/Adsorbate energy:                                           0.00000
	Host/Adsorbate VDW energy:                                       0.00000
	Host/Adsorbate Coulomb energy:                                   0.00000
	Host/Adsorbate charge-charge Real energy:                        0.00000
	Host/Adsorbate charge-charge Fourier energy:                     0.00000
	Host/Adsorbate charge-bonddipole Real energy:                    0.00000
	Host/Adsorbate charge-bonddipole Fourier energy:                 0.00000
	Host/Adsorbate bondipole-bonddipole Real energy:                 0.00000
	Host/Adsorbate bondipole-bonddipole Fourier energy:              0.00000

Host/Cation energy:                                              0.00000
	Host/Cation VDW energy:                                          0.00000
	Host/Cation Coulomb energy:                                      0.00000
	Host/Cation charge-charge Real energy:                           0.00000
	Host/Cation charge-charge Fourier energy:                        0.00000
	Host/Cation charge-bonddipole Real energy:                       0.00000
	Host/Cation charge-bonddipole Fourier energy:                    0.00000
	Host/Cation bondipole-bonddipole Real energy:                    0.00000
	Host/Cation bondipole-bonddipole Fourier energy:                 0.00000

Adsorbate/Adsorbate energy:                                    -2521383.17791
	Adsorbate/Adsorbate VDW energy:                                  396948.01839
	Adsorbate/Adsorbate Coulomb energy:                            -2918331.19630
	Adsorbate/Adsorbate charge-charge Real energy:                 -2796796.56314
	Adsorbate/Adsorbate charge-charge Fourier energy:               -121534.63315
	Adsorbate/Adsorbate charge-bonddipole Real energy:                    0.00000
	Adsorbate/Adsorbate charge-bonddipole Fourier energy:                 0.00000
	Adsorbate/Adsorbate bondipole-bonddipole Real energy:                 0.00000
	Adsorbate/Adsorbate bondipole-bonddipole Fourier energy:              0.00000

Adsorbate/Cation energy:                                              0.00000
	Adsorbate/Cation VDW energy:                                          0.00000
	Adsorbate/Cation Coulomb energy:                                      0.00000
	Adsorbate/Cation charge-charge Real energy:                           0.00000
	Adsorbate/Cation charge-charge Fourier energy:                        0.00000
	Adsorbate/Cation charge-bonddipole Real energy:                       0.00000
	Adsorbate/Cation charge-bonddipole Fourier energy:                    0.00000
	Adsorbate/Cation bondipole-bonddipole Real energy:                    0.00000
	Adsorbate/Cation bondipole-bonddipole Fourier energy:                 0.00000

Cation/Cation energy:                                              0.00000
	Cation/Cation VDW energy:                                          0.00000
	Cation/Cation Coulomb energy:                                      0.00000
	Cation/Cation charge-charge Real energy:                           0.00000
	Cation/Cation charge-charge Fourier energy:                        0.00000
	Cation/Cation charge-bonddipole Real energy:                       0.00000
	Cation/Cation charge-bonddipole Fourier energy:                    0.00000
	Cation/Cation bondipole-bonddipole Real energy:                    0.00000
	Cation/Cation bondipole-bonddipole Fourier energy:                 0.00000

Polarization energy:
	Host polarization energy:                                        0.00000
	Adsorbate polarization energy:                                   0.00000
	Cation polarization energy:                                      0.00000
	Host back-polarization energy:                                        0.00000
	Adsorbate back-polarization energy:                                   0.00000
	Cation back-polarization energy:                                      0.00000

Tail-correction energy:                                          0.00000

Distance constraints energy:                                     0.00000
Angle constraints energy:                                        0.00000
Dihedral constraints energy:                                     0.00000
Inversion-bend constraints energy:                               0.00000
Out-of-plane distance constraints energy:                        0.00000
Exclusion constraints energy:                                    0.00000

===================================================================
Total energy: -2521383.177907341626
	Total Van der Waals: 396948.018388
	Total Coulomb: -2918331.196295

	Total Polarization: 0.000000







+++++++++++++++++++++++++++++++++++++++++++++++++++++++++++++++++++++++++
Starting simulation
+++++++++++++++++++++++++++++++++++++++++++++++++++++++++++++++++++++++++

[Init] Current cycle: 0 out of 100
========================================================================================================

Net charge:       0.0000000000
Current Box:  24.83000   0.00000   0.00000 [A]
               0.00000  24.83000   0.00000 [A]
               0.00000   0.00000  24.83000 [A]
Box-lengths:  24.83000  24.83000  24.83000 Box-angles:   90.00000  90.00000  90.00000 [degrees]
Volume: 15308.41259 [A^3]

Amount of molecules per component:
----------------------------------------------------------------------------------------------------------------------------------------------------
Component 0 (Tip5p), current number of mol/uc: 512.00000, density: 999.74825 [kg/m^3]
----------------------------------------------------------------------------------------------------------------------------------------------------
Number of Framework-atoms: 0
Number of Adsorbates:      512
Number of Cations:         0

Current total potential energy:          -2521383.1779073416 [K]
	Current Host-Host energy:                     0.0000000000 [K]
	Current Host-Adsorbate energy:                0.0000000000 [K]
	Current Host-Cation energy:                   0.0000000000 [K]
	Current Adsorbate-Adsorbate energy:    -2521383.1779073416 [K]
	Current Cation-Cation energy:                 0.0000000000 [K]
	Current Adsorbate-Cation energy:              0.0000000000 [K]



[Init] Current cycle: 0 out of 5000
========================================================================================================

Net charge:       0.0000000000
Current Box:  24.83000   0.00000   0.00000 [A]
               0.00000  24.83000   0.00000 [A]
               0.00000   0.00000  24.83000 [A]
Box-lengths:  24.83000  24.83000  24.83000 Box-angles:   90.00000  90.00000  90.00000 [degrees]
Volume: 15308.41259 [A^3]

Total linear momentum:       0.0000000000 [A]      -0.0000000000 [A]       0.0000000000 [A]

Amount of molecules per component:
----------------------------------------------------------------------------------------------------------------------------------------------------
Component 0 (Tip5p), current number of mol/uc: 512.00000, density: 999.74825 [kg/m^3]
----------------------------------------------------------------------------------------------------------------------------------------------------
Number of Framework-atoms: 0
Number of Adsorbates:      512
Number of Cations:         0

Conserved energy:    -1305725.2661120540 Energy drifts:  0.0000000000           0.0000000000
Temperature:                    290.6596062246
Temperature Adsorbates:         290.6596062246
Cell temperature:    0.000
Degrees of freedom: 3069 0 3069 0
Current total kinetic energy:            370839.4078051216 [K]
Current total Nose-Hoover energy:        623143.2573772179 [K]
Current total potential energy:          -2501212.3560905121 [K]
	Current Host-Host energy:                     0.0000000000 [K]
	Current Host-Adsorbate energy:                0.0000000000 [K]
	Current Host-Cation energy:                   0.0000000000 [K]
	Current Adsorbate-Adsorbate energy:    -2501212.3560905121 [K]
	Current Cation-Cation energy:                 0.0000000000 [K]
	Current Adsorbate-Cation energy:              0.0000000000 [K]



[Init] Current cycle: 100 out of 5000
========================================================================================================

Net charge:       0.0000000000
Current Box:  24.83000   0.00000   0.00000 [A]
               0.00000  24.83000   0.00000 [A]
               0.00000   0.00000  24.83000 [A]
Box-lengths:  24.83000  24.83000  24.83000 Box-angles:   90.00000  90.00000  90.00000 [degrees]
Volume: 15308.41259 [A^3]

Total linear momentum:       0.0000000000 [A]      -0.0000000000 [A]       0.0000000000 [A]

Amount of molecules per component:
----------------------------------------------------------------------------------------------------------------------------------------------------
Component 0 (Tip5p), current number of mol/uc: 512.00000, density: 999.74825 [kg/m^3]
----------------------------------------------------------------------------------------------------------------------------------------------------
Number of Framework-atoms: 0
Number of Adsorbates:      512
Number of Cations:         0

Conserved energy:    -1305635.6441081653 Energy drifts:  0.0000825523           0.0000745456
Temperature:                    289.7988928413
Temperature Adsorbates:         289.7988928413
Cell temperature:    0.000
Degrees of freedom: 3069 0 3069 0
Current total kinetic energy:            369741.2626397273 [K]
Current total Nose-Hoover energy:        624179.7252851555 [K]
Current total potential energy:          -2501048.5533512668 [K]
	Current Host-Host energy:                     0.0000000000 [K]
	Current Host-Adsorbate energy:                0.0000000000 [K]
	Current Host-Cation energy:                   0.0000000000 [K]
	Current Adsorbate-Adsorbate energy:    -2501048.5533512668 [K]
	Current Cation-Cation energy:                 0.0000000000 [K]
	Current Adsorbate-Cation energy:              0.0000000000 [K]



[Init] Current cycle: 200 out of 5000
========================================================================================================

Net charge:       0.0000000000
Current Box:  24.83000   0.00000   0.00000 [A]
               0.00000  24.83000   0.00000 [A]
               0.00000   0.00000  24.83000 [A]
Box-lengths:  24.83000  24.83000  24.83000 Box-angles:   90.00000  90.00000  90.00000 [degrees]
Volume: 15308.41259 [A^3]

Total linear momentum:       0.0000000000 [A]      -0.0000000000 [A]       0.0000000000 [A]

Amount of molecules per component:
----------------------------------------------------------------------------------------------------------------------------------------------------
Component 0 (Tip5p), current number of mol/uc: 512.00000, density: 999.74825 [kg/m^3]
----------------------------------------------------------------------------------------------------------------------------------------------------
Number of Framework-atoms: 0
Number of Adsorbates:      512
Number of Cations:         0

Conserved energy:    -1305641.7822512130 Energy drifts:  0.0000768983           0.0000704909
Temperature:                    303.0418955402
Temperature Adsorbates:         303.0418955402
Cell temperature:    0.000
Degrees of freedom: 3069 0 3069 0
Current total kinetic energy:            386637.4091053288 [K]
Current total Nose-Hoover energy:        625034.0027186583 [K]
Current total potential energy:          -2522403.5573813585 [K]
	Current Host-Host energy:                     0.0000000000 [K]
	Current Host-Adsorbate energy:                0.0000000000 [K]
	Current Host-Cation energy:                   0.0000000000 [K]
	Current Adsorbate-Adsorbate energy:    -2522403.5573813585 [K]
	Current Cation-Cation energy:                 0.0000000000 [K]
	Current Adsorbate-Cation energy:              0.0000000000 [K]



[Init] Current cycle: 300 out of 5000
========================================================================================================

Net charge:       0.0000000000
Current Box:  24.83000   0.00000   0.00000 [A]
               0.00000  24.83000   0.00000 [A]
               0.00000   0.00000  24.83000 [A]
Box-lengths:  24.83000  24.83000  24.83000 Box-angles:   90.00000  90.00000  90.00000 [degrees]
Volume: 15308.41259 [A^3]

Total linear momentum:       0.0000000000 [A]      -0.0000000000 [A]       0.0000000000 [A]

Amount of molecules per component:
----------------------------------------------------------------------------------------------------------------------------------------------------
Component 0 (Tip5p), current number of mol/uc: 512.00000, density: 999.74825 [kg/m^3]
----------------------------------------------------------------------------------------------------------------------------------------------------
Number of Framework-atoms: 0
Number of Adsorbates:      512
Number of Cations:         0

Conserved energy:    -1305657.3961024326 Energy drifts:  0.0000625161           0.0000679641
Temperature:                    297.8968467961
Temperature Adsorbates:         297.8968467961
Cell temperature:    0.000
Degrees of freedom: 3069 0 3069 0
Current total kinetic energy:            380073.0747825461 [K]
Current total Nose-Hoover energy:        625749.9795914170 [K]
Current total potential energy:          -2515385.2097018706 [K]
	Current Host-Host energy:                     0.0000000000 [K]
	Current Host-Adsorbate energy:                0.0000000000 [K]
	Current Host-Cation energy:                   0.0000000000 [K]
	Current Adsorbate-Adsorbate energy:    -2515385.2097018706 [K]
	Current Cation-Cation energy:                 0.0000000000 [K]
	Current Adsorbate-Cation energy:              0.0000000000 [K]



[Init] Current cycle: 400 out of 5000
========================================================================================================

Net charge:       0.0000000000
Current Box:  24.83000   0.00000   0.00000 [A]
               0.00000  24.83000   0.00000 [A]
               0.00000   0.00000  24.83000 [A]
Box-lengths:  24.83000  24.83000  24.83000 Box-angles:   90.00000  90.00000  90.00000 [degrees]
Volume: 15308.41259 [A^3]

Total linear momentum:       0.0000000000 [A]      -0.0000000000 [A]       0.0000000000 [A]

Amount of molecules per component:
----------------------------------------------------------------------------------------------------------------------------------------------------
Component 0 (Tip5p), current number of mol/uc: 512.00000, density: 999.74825 [kg/m^3]
----------------------------------------------------------------------------------------------------------------------------------------------------
Number of Framework-atoms: 0
Number of Adsorbates:      512
Number of Cations:         0

Conserved energy:    -1305649.8708808802 Energy drifts:  0.0000694477           0.0000653913
Temperature:                    300.3895849298
Temperature Adsorbates:         300.3895849298
Cell temperature:    0.000
Degrees of freedom: 3069 0 3069 0
Current total kinetic energy:            383253.4463014179 [K]
Current total Nose-Hoover energy:        625757.7054039231 [K]
Current total potential energy:          -2519212.0865627304 [K]
	Current Host-Host energy:                     0.0000000000 [K]
	Current Host-Adsorbate energy:                0.0000000000 [K]
	Current Host-Cation energy:                   0.0000000000 [K]
	Current Adsorbate-Adsorbate energy:    -2519212.0865627304 [K]
	Current Cation-Cation energy:                 0.0000000000 [K]
	Current Adsorbate-Cation energy:              0.0000000000 [K]



[Init] Current cycle: 500 out of 5000
========================================================================================================

Net charge:       0.0000000000
Current Box:  24.83000   0.00000   0.00000 [A]
               0.00000  24.83000   0.00000 [A]
               0.00000   0.00000  24.83000 [A]
Box-lengths:  24.83000  24.83000  24.83000 Box-angles:   90.00000  90.00000  90.00000 [degrees]
Volume: 15308.41259 [A^3]

Total linear momentum:       0.0000000000 [A]      -0.0000000000 [A]       0.0000000000 [A]

Amount of molecules per component:
----------------------------------------------------------------------------------------------------------------------------------------------------
Component 0 (Tip5p), current number of mol/uc: 512.00000, density: 999.74825 [kg/m^3]
----------------------------------------------------------------------------------------------------------------------------------------------------
Number of Framework-atoms: 0
Number of Adsorbates:      512
Number of Cations:         0

Conserved energy:    -1305651.6433966802 Energy drifts:  0.0000678151           0.0000634401
Temperature:                    295.3644732932
Temperature Adsorbates:         295.3644732932
Cell temperature:    0.000
Degrees of freedom: 3069 0 3069 0
Current total kinetic energy:            376842.1342940092 [K]
Current total Nose-Hoover energy:        626353.9730262652 [K]
Current total potential energy:          -2512219.9639800447 [K]
	Current Host-Host energy:                     0.0000000000 [K]
	Current Host-Adsorbate energy:                0.0000000000 [K]
	Current Host-Cation energy:                   0.0000000000 [K]
	Current Adsorbate-Adsorbate energy:    -2512219.9639800447 [K]
	Current Cation-Cation energy:                 0.0000000000 [K]
	Current Adsorbate-Cation energy:              0.0000000000 [K]



[Init] Current cycle: 600 out of 5000
========================================================================================================

Net charge:       0.0000000000
Current Box:  24.83000   0.00000   0.00000 [A]
               0.00000  24.83000   0.00000 [A]
               0.00000   0.00000  24.83000 [A]
Box-lengths:  24.83000  24.83000  24.83000 Box-angles:   90.00000  90.00000  90.00000 [degrees]
Volume: 15308.41259 [A^3]

Total linear momentum:       0.0000000000 [A]      -0.0000000000 [A]       0.0000000000 [A]

Amount of molecules per component:
----------------------------------------------------------------------------------------------------------------------------------------------------
Component 0 (Tip5p), current number of mol/uc: 512.00000, density: 999.74825 [kg/m^3]
----------------------------------------------------------------------------------------------------------------------------------------------------
Number of Framework-atoms: 0
Number of Adsorbates:      512
Number of Cations:         0

Conserved energy:    -1305644.9933541378 Energy drifts:  0.0000739405           0.0000618764
Temperature:                    289.8087175366
Temperature Adsorbates:         289.8087175366
Cell temperature:    0.000
Degrees of freedom: 3069 0 3069 0
Current total kinetic energy:            369753.7975227745 [K]
Current total Nose-Hoover energy:        627184.5925361407 [K]
Current total potential energy:          -2504687.0054205242 [K]
	Current Host-Host energy:                     0.0000000000 [K]
	Current Host-Adsorbate energy:                0.0000000000 [K]
	Current Host-Cation energy:                   0.0000000000 [K]
	Current Adsorbate-Adsorbate energy:    -2504687.0054205242 [K]
	Current Cation-Cation energy:                 0.0000000000 [K]
	Current Adsorbate-Cation energy:              0.0000000000 [K]



[Init] Current cycle: 700 out of 5000
========================================================================================================

Net charge:       0.0000000000
Current Box:  24.83000   0.00000   0.00000 [A]
               0.00000  24.83000   0.00000 [A]
               0.00000   0.00000  24.83000 [A]
Box-lengths:  24.83000  24.83000  24.83000 Box-angles:   90.00000  90.00000  90.00000 [degrees]
Volume: 15308.41259 [A^3]

Total linear momentum:       0.0000000000 [A]      -0.0000000000 [A]       0.0000000000 [A]

Amount of molecules per component:
----------------------------------------------------------------------------------------------------------------------------------------------------
Component 0 (Tip5p), current number of mol/uc: 512.00000, density: 999.74825 [kg/m^3]
----------------------------------------------------------------------------------------------------------------------------------------------------
Number of Framework-atoms: 0
Number of Adsorbates:      512
Number of Cations:         0

Conserved energy:    -1305655.3557922379 Energy drifts:  0.0000643955           0.0000610217
Temperature:                    292.2778499324
Temperature Adsorbates:         292.2778499324
Cell temperature:    0.000
Degrees of freedom: 3069 0 3069 0
Current total kinetic energy:            372904.0515513443 [K]
Current total Nose-Hoover energy:        627671.7604552094 [K]
Current total potential energy:          -2509072.1835687240 [K]
	Current Host-Host energy:                     0.0000000000 [K]
	Current Host-Adsorbate energy:                0.0000000000 [K]
	Current Host-Cation energy:                   0.0000000000 [K]
	Current Adsorbate-Adsorbate energy:    -2509072.1835687240 [K]
	Current Cation-Cation energy:                 0.0000000000 [K]
	Current Adsorbate-Cation energy:              0.0000000000 [K]



[Init] Current cycle: 800 out of 5000
========================================================================================================

Net charge:       0.0000000000
Current Box:  24.83000   0.00000   0.00000 [A]
               0.00000  24.83000   0.00000 [A]
               0.00000   0.00000  24.83000 [A]
Box-lengths:  24.83000  24.83000  24.83000 Box-angles:   90.00000  90.00000  90.00000 [degrees]
Volume: 15308.41259 [A^3]

Total linear momentum:       0.0000000000 [A]      -0.0000000000 [A]       0.0000000000 [A]

Amount of molecules per component:
----------------------------------------------------------------------------------------------------------------------------------------------------
Component 0 (Tip5p), current number of mol/uc: 512.00000, density: 999.74825 [kg/m^3]
----------------------------------------------------------------------------------------------------------------------------------------------------
Number of Framework-atoms: 0
Number of Adsorbates:      512
Number of Cations:         0

Conserved energy:    -1305644.8365555133 Energy drifts:  0.0000740849           0.0000605123
Temperature:                    297.6436612590
Temperature Adsorbates:         297.6436612590
Cell temperature:    0.000
Degrees of freedom: 3069 0 3069 0
Current total kinetic energy:            379750.0468397572 [K]
Current total Nose-Hoover energy:        628185.9916058063 [K]
Current total potential energy:          -2517913.9874110338 [K]
	Current Host-Host energy:                     0.0000000000 [K]
	Current Host-Adsorbate energy:                0.0000000000 [K]
	Current Host-Cation energy:                   0.0000000000 [K]
	Current Adsorbate-Adsorbate energy:    -2517913.9874110338 [K]
	Current Cation-Cation energy:                 0.0000000000 [K]
	Current Adsorbate-Cation energy:              0.0000000000 [K]



[Init] Current cycle: 900 out of 5000
========================================================================================================

Net charge:       0.0000000000
Current Box:  24.83000   0.00000   0.00000 [A]
               0.00000  24.83000   0.00000 [A]
               0.00000   0.00000  24.83000 [A]
Box-lengths:  24.83000  24.83000  24.83000 Box-angles:   90.00000  90.00000  90.00000 [degrees]
Volume: 15308.41259 [A^3]

Total linear momentum:      -0.0000000000 [A]      -0.0000000000 [A]       0.0000000000 [A]

Amount of molecules per component:
----------------------------------------------------------------------------------------------------------------------------------------------------
Component 0 (Tip5p), current number of mol/uc: 512.00000, density: 999.74825 [kg/m^3]
----------------------------------------------------------------------------------------------------------------------------------------------------
Number of Framework-atoms: 0
Number of Adsorbates:      512
Number of Cations:         0

Conserved energy:    -1305646.4532955724 Energy drifts:  0.0000725957           0.0000602246
Temperature:                    295.6748924963
Temperature Adsorbates:         295.6748924963
Cell temperature:    0.000
Degrees of freedom: 3069 0 3069 0
Current total kinetic energy:            377238.1840751797 [K]
Current total Nose-Hoover energy:        629065.5087049874 [K]
Current total potential energy:          -2515952.3423783081 [K]
	Current Host-Host energy:                     0.0000000000 [K]
	Current Host-Adsorbate energy:                0.0000000000 [K]
	Current Host-Cation energy:                   0.0000000000 [K]
	Current Adsorbate-Adsorbate energy:    -2515952.3423783081 [K]
	Current Cation-Cation energy:                 0.0000000000 [K]
	Current Adsorbate-Cation energy:              0.0000000000 [K]



[Init] Current cycle: 1000 out of 5000
========================================================================================================

Net charge:       0.0000000000
Current Box:  24.83000   0.00000   0.00000 [A]
               0.00000  24.83000   0.00000 [A]
               0.00000   0.00000  24.83000 [A]
Box-lengths:  24.83000  24.83000  24.83000 Box-angles:   90.00000  90.00000  90.00000 [degrees]
Volume: 15308.41259 [A^3]

Total linear momentum:      -0.0000000000 [A]      -0.0000000000 [A]       0.0000000000 [A]

Amount of molecules per component:
----------------------------------------------------------------------------------------------------------------------------------------------------
Component 0 (Tip5p), current number of mol/uc: 512.00000, density: 999.74825 [kg/m^3]
----------------------------------------------------------------------------------------------------------------------------------------------------
Number of Framework-atoms: 0
Number of Adsorbates:      512
Number of Cations:         0

Conserved energy:    -1305638.9128484116 Energy drifts:  0.0000795414           0.0000602760
Temperature:                    300.4115972651
Temperature Adsorbates:         300.4115972651
Cell temperature:    0.000
Degrees of freedom: 3069 0 3069 0
Current total kinetic energy:            383281.5308415228 [K]
Current total Nose-Hoover energy:        629567.4172197760 [K]
Current total potential energy:          -2523816.9394072779 [K]
	Current Host-Host energy:                     0.0000000000 [K]
	Current Host-Adsorbate energy:                0.0000000000 [K]
	Current Host-Cation energy:                   0.0000000000 [K]
	Current Adsorbate-Adsorbate energy:    -2523816.9394072779 [K]
	Current Cation-Cation energy:                 0.0000000000 [K]
	Current Adsorbate-Cation energy:              0.0000000000 [K]



[Init] Current cycle: 1100 out of 5000
========================================================================================================

Net charge:       0.0000000000
Current Box:  24.83000   0.00000   0.00000 [A]
               0.00000  24.83000   0.00000 [A]
               0.00000   0.00000  24.83000 [A]
Box-lengths:  24.83000  24.83000  24.83000 Box-angles:   90.00000  90.00000  90.00000 [degrees]
Volume: 15308.41259 [A^3]

Total linear momentum:       0.0000000000 [A]      -0.0000000000 [A]       0.0000000000 [A]

Amount of molecules per component:
----------------------------------------------------------------------------------------------------------------------------------------------------
Component 0 (Tip5p), current number of mol/uc: 512.00000, density: 999.74825 [kg/m^3]
----------------------------------------------------------------------------------------------------------------------------------------------------
Number of Framework-atoms: 0
Number of Adsorbates:      512
Number of Cations:         0

Conserved energy:    -1305638.1422017827 Energy drifts:  0.0000802512           0.0000605254
Temperature:                    299.0273274105
Temperature Adsorbates:         299.0273274105
Cell temperature:    0.000
Degrees of freedom: 3069 0 3069 0
Current total kinetic energy:            381515.4037220258 [K]
Current total Nose-Hoover energy:        630364.6941429549 [K]
Current total potential energy:          -2522650.9091013079 [K]
	Current Host-Host energy:                     0.0000000000 [K]
	Current Host-Adsorbate energy:                0.0000000000 [K]
	Current Host-Cation energy:                   0.0000000000 [K]
	Current Adsorbate-Adsorbate energy:    -2522650.9091013079 [K]
	Current Cation-Cation energy:                 0.0000000000 [K]
	Current Adsorbate-Cation energy:              0.0000000000 [K]



[Init] Current cycle: 1200 out of 5000
========================================================================================================

Net charge:       0.0000000000
Current Box:  24.83000   0.00000   0.00000 [A]
               0.00000  24.83000   0.00000 [A]
               0.00000   0.00000  24.83000 [A]
Box-lengths:  24.83000  24.83000  24.83000 Box-angles:   90.00000  90.00000  90.00000 [degrees]
Volume: 15308.41259 [A^3]

Total linear momentum:       0.0000000000 [A]      -0.0000000000 [A]       0.0000000000 [A]

Amount of molecules per component:
----------------------------------------------------------------------------------------------------------------------------------------------------
Component 0 (Tip5p), current number of mol/uc: 512.00000, density: 999.74825 [kg/m^3]
----------------------------------------------------------------------------------------------------------------------------------------------------
Number of Framework-atoms: 0
Number of Adsorbates:      512
Number of Cations:         0

Conserved energy:    -1305637.0944483748 Energy drifts:  0.0000812163           0.0000609963
Temperature:                    302.6474723041
Temperature Adsorbates:         302.6474723041
Cell temperature:    0.000
Degrees of freedom: 3069 0 3069 0
Current total kinetic energy:            386134.1823887157 [K]
Current total Nose-Hoover energy:        631585.9953799744 [K]
Current total potential energy:          -2529673.8672726373 [K]
	Current Host-Host energy:                     0.0000000000 [K]
	Current Host-Adsorbate energy:                0.0000000000 [K]
	Current Host-Cation energy:                   0.0000000000 [K]
	Current Adsorbate-Adsorbate energy:    -2529673.8672726373 [K]
	Current Cation-Cation energy:                 0.0000000000 [K]
	Current Adsorbate-Cation energy:              0.0000000000 [K]



[Init] Current cycle: 1300 out of 5000
========================================================================================================

Net charge:       0.0000000000
Current Box:  24.83000   0.00000   0.00000 [A]
               0.00000  24.83000   0.00000 [A]
               0.00000   0.00000  24.83000 [A]
Box-lengths:  24.83000  24.83000  24.83000 Box-angles:   90.00000  90.00000  90.00000 [degrees]
Volume: 15308.41259 [A^3]

Total linear momentum:       0.0000000000 [A]      -0.0000000000 [A]       0.0000000000 [A]

Amount of molecules per component:
----------------------------------------------------------------------------------------------------------------------------------------------------
Component 0 (Tip5p), current number of mol/uc: 512.00000, density: 999.74825 [kg/m^3]
----------------------------------------------------------------------------------------------------------------------------------------------------
Number of Framework-atoms: 0
Number of Adsorbates:      512
Number of Cations:         0

Conserved energy:    -1305635.6822262935 Energy drifts:  0.0000825171           0.0000615019
Temperature:                    295.2497634882
Temperature Adsorbates:         295.2497634882
Cell temperature:    0.000
Degrees of freedom: 3069 0 3069 0
Current total kinetic energy:            376695.7812568107 [K]
Current total Nose-Hoover energy:        633357.8011834368 [K]
Current total potential energy:          -2520451.6546681263 [K]
	Current Host-Host energy:                     0.0000000000 [K]
	Current Host-Adsorbate energy:                0.0000000000 [K]
	Current Host-Cation energy:                   0.0000000000 [K]
	Current Adsorbate-Adsorbate energy:    -2520451.6546681263 [K]
	Current Cation-Cation energy:                 0.0000000000 [K]
	Current Adsorbate-Cation energy:              0.0000000000 [K]



[Init] Current cycle: 1400 out of 5000
========================================================================================================

Net charge:       0.0000000000
Current Box:  24.83000   0.00000   0.00000 [A]
               0.00000  24.83000   0.00000 [A]
               0.00000   0.00000  24.83000 [A]
Box-lengths:  24.83000  24.83000  24.83000 Box-angles:   90.00000  90.00000  90.00000 [degrees]
Volume: 15308.41259 [A^3]

Total linear momentum:      -0.0000000000 [A]      -0.0000000000 [A]       0.0000000000 [A]

Amount of molecules per component:
----------------------------------------------------------------------------------------------------------------------------------------------------
Component 0 (Tip5p), current number of mol/uc: 512.00000, density: 999.74825 [kg/m^3]
----------------------------------------------------------------------------------------------------------------------------------------------------
Number of Framework-atoms: 0
Number of Adsorbates:      512
Number of Cations:         0

Conserved energy:    -1305634.3953250765 Energy drifts:  0.0000837025           0.0000619904
Temperature:                    297.2139634179
Temperature Adsorbates:         297.2139634179
Cell temperature:    0.000
Degrees of freedom: 3069 0 3069 0
Current total kinetic energy:            379201.8148545861 [K]
Current total Nose-Hoover energy:        634761.4129834643 [K]
Current total potential energy:          -2525152.5932313842 [K]
	Current Host-Host energy:                     0.0000000000 [K]
	Current Host-Adsorbate energy:                0.0000000000 [K]
	Current Host-Cation energy:                   0.0000000000 [K]
	Current Adsorbate-Adsorbate energy:    -2525152.5932313842 [K]
	Current Cation-Cation energy:                 0.0000000000 [K]
	Current Adsorbate-Cation energy:              0.0000000000 [K]



[Init] Current cycle: 1500 out of 5000
========================================================================================================

Net charge:       0.0000000000
Current Box:  24.83000   0.00000   0.00000 [A]
               0.00000  24.83000   0.00000 [A]
               0.00000   0.00000  24.83000 [A]
Box-lengths:  24.83000  24.83000  24.83000 Box-angles:   90.00000  90.00000  90.00000 [degrees]
Volume: 15308.41259 [A^3]

Total linear momentum:      -0.0000000000 [A]      -0.0000000000 [A]       0.0000000000 [A]

Amount of molecules per component:
----------------------------------------------------------------------------------------------------------------------------------------------------
Component 0 (Tip5p), current number of mol/uc: 512.00000, density: 999.74825 [kg/m^3]
----------------------------------------------------------------------------------------------------------------------------------------------------
Number of Framework-atoms: 0
Number of Adsorbates:      512
Number of Cations:         0

Conserved energy:    -1305629.0005066381 Energy drifts:  0.0000886718           0.0000624922
Temperature:                    292.8895400783
Temperature Adsorbates:         292.8895400783
Cell temperature:    0.000
Degrees of freedom: 3069 0 3069 0
Current total kinetic energy:            373684.4792633591 [K]
Current total Nose-Hoover energy:        635602.5901965514 [K]
Current total potential energy:          -2519523.0691724871 [K]
	Current Host-Host energy:                     0.0000000000 [K]
	Current Host-Adsorbate energy:                0.0000000000 [K]
	Current Host-Cation energy:                   0.0000000000 [K]
	Current Adsorbate-Adsorbate energy:    -2519523.0691724871 [K]
	Current Cation-Cation energy:                 0.0000000000 [K]
	Current Adsorbate-Cation energy:              0.0000000000 [K]



[Init] Current cycle: 1600 out of 5000
========================================================================================================

Net charge:       0.0000000000
Current Box:  24.83000   0.00000   0.00000 [A]
               0.00000  24.83000   0.00000 [A]
               0.00000   0.00000  24.83000 [A]
Box-lengths:  24.83000  24.83000  24.83000 Box-angles:   90.00000  90.00000  90.00000 [degrees]
Volume: 15308.41259 [A^3]

Total linear momentum:      -0.0000000000 [A]      -0.0000000000 [A]       0.0000000000 [A]

Amount of molecules per component:
----------------------------------------------------------------------------------------------------------------------------------------------------
Component 0 (Tip5p), current number of mol/uc: 512.00000, density: 999.74825 [kg/m^3]
----------------------------------------------------------------------------------------------------------------------------------------------------
Number of Framework-atoms: 0
Number of Adsorbates:      512
Number of Cations:         0

Conserved energy:    -1305637.2684011166 Energy drifts:  0.0000810561           0.0000630285
Temperature:                    299.3444799643
Temperature Adsorbates:         299.3444799643
Cell temperature:    0.000
Degrees of freedom: 3069 0 3069 0
Current total kinetic energy:            381920.0442799194 [K]
Current total Nose-Hoover energy:        635634.8148521491 [K]
Current total potential energy:          -2529475.2084864024 [K]
	Current Host-Host energy:                     0.0000000000 [K]
	Current Host-Adsorbate energy:                0.0000000000 [K]
	Current Host-Cation energy:                   0.0000000000 [K]
	Current Adsorbate-Adsorbate energy:    -2529475.2084864024 [K]
	Current Cation-Cation energy:                 0.0000000000 [K]
	Current Adsorbate-Cation energy:              0.0000000000 [K]



[Init] Current cycle: 1700 out of 5000
========================================================================================================

Net charge:       0.0000000000
Current Box:  24.83000   0.00000   0.00000 [A]
               0.00000  24.83000   0.00000 [A]
               0.00000   0.00000  24.83000 [A]
Box-lengths:  24.83000  24.83000  24.83000 Box-angles:   90.00000  90.00000  90.00000 [degrees]
Volume: 15308.41259 [A^3]

Total linear momentum:      -0.0000000000 [A]      -0.0000000000 [A]       0.0000000000 [A]

Amount of molecules per component:
----------------------------------------------------------------------------------------------------------------------------------------------------
Component 0 (Tip5p), current number of mol/uc: 512.00000, density: 999.74825 [kg/m^3]
----------------------------------------------------------------------------------------------------------------------------------------------------
Number of Framework-atoms: 0
Number of Adsorbates:      512
Number of Cations:         0

Conserved energy:    -1305631.2414895371 Energy drifts:  0.0000866076           0.0000635120
Temperature:                    296.7309538247
Temperature Adsorbates:         296.7309538247
Cell temperature:    0.000
Degrees of freedom: 3069 0 3069 0
Current total kinetic energy:            378585.5648231390 [K]
Current total Nose-Hoover energy:        635170.0489815541 [K]
Current total potential energy:          -2524899.7369560828 [K]
	Current Host-Host energy:                     0.0000000000 [K]
	Current Host-Adsorbate energy:                0.0000000000 [K]
	Current Host-Cation energy:                   0.0000000000 [K]
	Current Adsorbate-Adsorbate energy:    -2524899.7369560828 [K]
	Current Cation-Cation energy:                 0.0000000000 [K]
	Current Adsorbate-Cation energy:              0.0000000000 [K]



[Init] Current cycle: 1800 out of 5000
========================================================================================================

Net charge:       0.0000000000
Current Box:  24.83000   0.00000   0.00000 [A]
               0.00000  24.83000   0.00000 [A]
               0.00000   0.00000  24.83000 [A]
Box-lengths:  24.83000  24.83000  24.83000 Box-angles:   90.00000  90.00000  90.00000 [degrees]
Volume: 15308.41259 [A^3]

Total linear momentum:      -0.0000000000 [A]      -0.0000000000 [A]       0.0000000000 [A]

Amount of molecules per component:
----------------------------------------------------------------------------------------------------------------------------------------------------
Component 0 (Tip5p), current number of mol/uc: 512.00000, density: 999.74825 [kg/m^3]
----------------------------------------------------------------------------------------------------------------------------------------------------
Number of Framework-atoms: 0
Number of Adsorbates:      512
Number of Cations:         0

Conserved energy:    -1305630.0125277643 Energy drifts:  0.0000877396           0.0000638805
Temperature:                    304.2805281378
Temperature Adsorbates:         304.2805281378
Cell temperature:    0.000
Degrees of freedom: 3069 0 3069 0
Current total kinetic energy:            388217.7242545753 [K]
Current total Nose-Hoover energy:        634678.4955643704 [K]
Current total potential energy:          -2535892.1368244607 [K]
	Current Host-Host energy:                     0.0000000000 [K]
	Current Host-Adsorbate energy:                0.0000000000 [K]
	Current Host-Cation energy:                   0.0000000000 [K]
	Current Adsorbate-Adsorbate energy:    -2535892.1368244607 [K]
	Current Cation-Cation energy:                 0.0000000000 [K]
	Current Adsorbate-Cation energy:              0.0000000000 [K]



[Init] Current cycle: 1900 out of 5000
========================================================================================================

Net charge:       0.0000000000
Current Box:  24.83000   0.00000   0.00000 [A]
               0.00000  24.83000   0.00000 [A]
               0.00000   0.00000  24.83000 [A]
Box-lengths:  24.83000  24.83000  24.83000 Box-angles:   90.00000  90.00000  90.00000 [degrees]
Volume: 15308.41259 [A^3]

Total linear momentum:      -0.0000000000 [A]      -0.0000000000 [A]       0.0000000000 [A]

Amount of molecules per component:
----------------------------------------------------------------------------------------------------------------------------------------------------
Component 0 (Tip5p), current number of mol/uc: 512.00000, density: 999.74825 [kg/m^3]
----------------------------------------------------------------------------------------------------------------------------------------------------
Number of Framework-atoms: 0
Number of Adsorbates:      512
Number of Cations:         0

Conserved energy:    -1305629.7562455714 Energy drifts:  0.0000879757           0.0000643167
Temperature:                    303.0998225436
Temperature Adsorbates:         303.0998225436
Cell temperature:    0.000
Degrees of freedom: 3069 0 3069 0
Current total kinetic energy:            386711.3155414999 [K]
Current total Nose-Hoover energy:        636461.4592313867 [K]
Current total potential energy:          -2536224.4999014242 [K]
	Current Host-Host energy:                     0.0000000000 [K]
	Current Host-Adsorbate energy:                0.0000000000 [K]
	Current Host-Cation energy:                   0.0000000000 [K]
	Current Adsorbate-Adsorbate energy:    -2536224.4999014242 [K]
	Current Cation-Cation energy:                 0.0000000000 [K]
	Current Adsorbate-Cation energy:              0.0000000000 [K]



[Init] Current cycle: 2000 out of 5000
========================================================================================================

Net charge:       0.0000000000
Current Box:  24.83000   0.00000   0.00000 [A]
               0.00000  24.83000   0.00000 [A]
               0.00000   0.00000  24.83000 [A]
Box-lengths:  24.83000  24.83000  24.83000 Box-angles:   90.00000  90.00000  90.00000 [degrees]
Volume: 15308.41259 [A^3]

Total linear momentum:      -0.0000000000 [A]      -0.0000000000 [A]       0.0000000000 [A]

Amount of molecules per component:
----------------------------------------------------------------------------------------------------------------------------------------------------
Component 0 (Tip5p), current number of mol/uc: 512.00000, density: 999.74825 [kg/m^3]
----------------------------------------------------------------------------------------------------------------------------------------------------
Number of Framework-atoms: 0
Number of Adsorbates:      512
Number of Cations:         0

Conserved energy:    -1305635.9165971535 Energy drifts:  0.0000823013           0.0000645367
Temperature:                    296.3031967025
Temperature Adsorbates:         296.3031967025
Cell temperature:    0.000
Degrees of freedom: 3069 0 3069 0
Current total kinetic energy:            378039.8089132009 [K]
Current total Nose-Hoover energy:        640111.2151051791 [K]
Current total potential energy:          -2530190.8786688871 [K]
	Current Host-Host energy:                     0.0000000000 [K]
	Current Host-Adsorbate energy:                0.0000000000 [K]
	Current Host-Cation energy:                   0.0000000000 [K]
	Current Adsorbate-Adsorbate energy:    -2530190.8786688871 [K]
	Current Cation-Cation energy:                 0.0000000000 [K]
	Current Adsorbate-Cation energy:              0.0000000000 [K]



[Init] Current cycle: 2100 out of 5000
========================================================================================================

Net charge:       0.0000000000
Current Box:  24.83000   0.00000   0.00000 [A]
               0.00000  24.83000   0.00000 [A]
               0.00000   0.00000  24.83000 [A]
Box-lengths:  24.83000  24.83000  24.83000 Box-angles:   90.00000  90.00000  90.00000 [degrees]
Volume: 15308.41259 [A^3]

Total linear momentum:      -0.0000000000 [A]      -0.0000000000 [A]       0.0000000000 [A]

Amount of molecules per component:
----------------------------------------------------------------------------------------------------------------------------------------------------
Component 0 (Tip5p), current number of mol/uc: 512.00000, density: 999.74825 [kg/m^3]
----------------------------------------------------------------------------------------------------------------------------------------------------
Number of Framework-atoms: 0
Number of Adsorbates:      512
Number of Cations:         0

Conserved energy:    -1305632.8790694268 Energy drifts:  0.0000850992           0.0000647599
Temperature:                    290.3529464166
Temperature Adsorbates:         290.3529464166
Cell temperature:    0.000
Degrees of freedom: 3069 0 3069 0
Current total kinetic energy:            370448.1544655352 [K]
Current total Nose-Hoover energy:        643437.4122179411 [K]
Current total potential energy:          -2525057.6720191506 [K]
	Current Host-Host energy:                     0.0000000000 [K]
	Current Host-Adsorbate energy:                0.0000000000 [K]
	Current Host-Cation energy:                   0.0000000000 [K]
	Current Adsorbate-Adsorbate energy:    -2525057.6720191506 [K]
	Current Cation-Cation energy:                 0.0000000000 [K]
	Current Adsorbate-Cation energy:              0.0000000000 [K]



[Init] Current cycle: 2200 out of 5000
========================================================================================================

Net charge:       0.0000000000
Current Box:  24.83000   0.00000   0.00000 [A]
               0.00000  24.83000   0.00000 [A]
               0.00000   0.00000  24.83000 [A]
Box-lengths:  24.83000  24.83000  24.83000 Box-angles:   90.00000  90.00000  90.00000 [degrees]
Volume: 15308.41259 [A^3]

Total linear momentum:      -0.0000000000 [A]      -0.0000000000 [A]       0.0000000000 [A]

Amount of molecules per component:
----------------------------------------------------------------------------------------------------------------------------------------------------
Component 0 (Tip5p), current number of mol/uc: 512.00000, density: 999.74825 [kg/m^3]
----------------------------------------------------------------------------------------------------------------------------------------------------
Number of Framework-atoms: 0
Number of Adsorbates:      512
Number of Cations:         0

Conserved energy:    -1305631.6461503271 Energy drifts:  0.0000862348           0.0000650125
Temperature:                    295.8291153637
Temperature Adsorbates:         295.8291153637
Cell temperature:    0.000
Degrees of freedom: 3069 0 3069 0
Current total kinetic energy:            377434.9500364583 [K]
Current total Nose-Hoover energy:        645728.3563913507 [K]
Current total potential energy:          -2536215.0019976194 [K]
	Current Host-Host energy:                     0.0000000000 [K]
	Current Host-Adsorbate energy:                0.0000000000 [K]
	Current Host-Cation energy:                   0.0000000000 [K]
	Current Adsorbate-Adsorbate energy:    -2536215.0019976194 [K]
	Current Cation-Cation energy:                 0.0000000000 [K]
	Current Adsorbate-Cation energy:              0.0000000000 [K]



[Init] Current cycle: 2300 out of 5000
========================================================================================================

Net charge:       0.0000000000
Current Box:  24.83000   0.00000   0.00000 [A]
               0.00000  24.83000   0.00000 [A]
               0.00000   0.00000  24.83000 [A]
Box-lengths:  24.83000  24.83000  24.83000 Box-angles:   90.00000  90.00000  90.00000 [degrees]
Volume: 15308.41259 [A^3]

Total linear momentum:      -0.0000000000 [A]      -0.0000000000 [A]       0.0000000000 [A]

Amount of molecules per component:
----------------------------------------------------------------------------------------------------------------------------------------------------
Component 0 (Tip5p), current number of mol/uc: 512.00000, density: 999.74825 [kg/m^3]
----------------------------------------------------------------------------------------------------------------------------------------------------
Number of Framework-atoms: 0
Number of Adsorbates:      512
Number of Cations:         0

Conserved energy:    -1305636.3717053714 Energy drifts:  0.0000818821           0.0000652245
Temperature:                    299.8865683445
Temperature Adsorbates:         299.8865683445
Cell temperature:    0.000
Degrees of freedom: 3069 0 3069 0
Current total kinetic energy:            382611.6702561215 [K]
Current total Nose-Hoover energy:        646996.3635880878 [K]
Current total potential energy:          -2543970.9577245936 [K]
	Current Host-Host energy:                     0.0000000000 [K]
	Current Host-Adsorbate energy:                0.0000000000 [K]
	Current Host-Cation energy:                   0.0000000000 [K]
	Current Adsorbate-Adsorbate energy:    -2543970.9577245936 [K]
	Current Cation-Cation energy:                 0.0000000000 [K]
	Current Adsorbate-Cation energy:              0.0000000000 [K]



[Init] Current cycle: 2400 out of 5000
========================================================================================================

Net charge:       0.0000000000
Current Box:  24.83000   0.00000   0.00000 [A]
               0.00000  24.83000   0.00000 [A]
               0.00000   0.00000  24.83000 [A]
Box-lengths:  24.83000  24.83000  24.83000 Box-angles:   90.00000  90.00000  90.00000 [degrees]
Volume: 15308.41259 [A^3]

Total linear momentum:      -0.0000000000 [A]      -0.0000000000 [A]       0.0000000000 [A]

Amount of molecules per component:
----------------------------------------------------------------------------------------------------------------------------------------------------
Component 0 (Tip5p), current number of mol/uc: 512.00000, density: 999.74825 [kg/m^3]
----------------------------------------------------------------------------------------------------------------------------------------------------
Number of Framework-atoms: 0
Number of Adsorbates:      512
Number of Cations:         0

Conserved energy:    -1305628.6125482353 Energy drifts:  0.0000890291           0.0000654223
Temperature:                    290.3412915695
Temperature Adsorbates:         290.3412915695
Cell temperature:    0.000
Degrees of freedom: 3069 0 3069 0
Current total kinetic energy:            370433.2845748425 [K]
Current total Nose-Hoover energy:        647651.8336475570 [K]
Current total potential energy:          -2530104.3081186414 [K]
	Current Host-Host energy:                     0.0000000000 [K]
	Current Host-Adsorbate energy:                0.0000000000 [K]
	Current Host-Cation energy:                   0.0000000000 [K]
	Current Adsorbate-Adsorbate energy:    -2530104.3081186414 [K]
	Current Cation-Cation energy:                 0.0000000000 [K]
	Current Adsorbate-Cation energy:              0.0000000000 [K]



[Init] Current cycle: 2500 out of 5000
========================================================================================================

Net charge:       0.0000000000
Current Box:  24.83000   0.00000   0.00000 [A]
               0.00000  24.83000   0.00000 [A]
               0.00000   0.00000  24.83000 [A]
Box-lengths:  24.83000  24.83000  24.83000 Box-angles:   90.00000  90.00000  90.00000 [degrees]
Volume: 15308.41259 [A^3]

Total linear momentum:      -0.0000000000 [A]       0.0000000000 [A]       0.0000000000 [A]

Amount of molecules per component:
----------------------------------------------------------------------------------------------------------------------------------------------------
Component 0 (Tip5p), current number of mol/uc: 512.00000, density: 999.74825 [kg/m^3]
----------------------------------------------------------------------------------------------------------------------------------------------------
Number of Framework-atoms: 0
Number of Adsorbates:      512
Number of Cations:         0

Conserved energy:    -1305618.3940292054 Energy drifts:  0.0000984416           0.0000656802
Temperature:                    286.1502832663
Temperature Adsorbates:         286.1502832663
Cell temperature:    0.000
Degrees of freedom: 3069 0 3069 0
Current total kinetic energy:            365086.1671770345 [K]
Current total Nose-Hoover energy:        646640.7329169565 [K]
Current total potential energy:          -2522446.9062492005 [K]
	Current Host-Host energy:                     0.0000000000 [K]
	Current Host-Adsorbate energy:                0.0000000000 [K]
	Current Host-Cation energy:                   0.0000000000 [K]
	Current Adsorbate-Adsorbate energy:    -2522446.9062492005 [K]
	Current Cation-Cation energy:                 0.0000000000 [K]
	Current Adsorbate-Cation energy:              0.0000000000 [K]



[Init] Current cycle: 2600 out of 5000
========================================================================================================

Net charge:       0.0000000000
Current Box:  24.83000   0.00000   0.00000 [A]
               0.00000  24.83000   0.00000 [A]
               0.00000   0.00000  24.83000 [A]
[...]
	Block[ 4]            0.00000 [K]
	------------------------------------------------------------------------------
	Average              0.00000 [K] +/-            0.00000 [K]

Average Adsorbate Intra charge-charge Coulomb energy:
=======================================
	Block[ 0]            0.00000 [K]
	Block[ 1]            0.00000 [K]
	Block[ 2]            0.00000 [K]
	Block[ 3]            0.00000 [K]
	Block[ 4]            0.00000 [K]
	------------------------------------------------------------------------------
	Average              0.00000 [K] +/-            0.00000 [K]

Average Adsorbate Intra charge-bonddipole Coulomb energy:
=======================================
	Block[ 0]            0.00000 [K]
	Block[ 1]            0.00000 [K]
	Block[ 2]            0.00000 [K]
	Block[ 3]            0.00000 [K]
	Block[ 4]            0.00000 [K]
	------------------------------------------------------------------------------
	Average              0.00000 [K] +/-            0.00000 [K]

Average Adsorbate Intra bonddipole-bonddipole Coulomb energy:
=======================================
	Block[ 0]            0.00000 [K]
	Block[ 1]            0.00000 [K]
	Block[ 2]            0.00000 [K]
	Block[ 3]            0.00000 [K]
	Block[ 4]            0.00000 [K]
	------------------------------------------------------------------------------
	Average              0.00000 [K] +/-            0.00000 [K]

Average Cation Bond stretch energy:
=================================
	Block[ 0]            0.00000 [K]
	Block[ 1]            0.00000 [K]
	Block[ 2]            0.00000 [K]
	Block[ 3]            0.00000 [K]
	Block[ 4]            0.00000 [K]
	------------------------------------------------------------------------------
	Average              0.00000 [K] +/-            0.00000 [K]

Average Cation UreyBradley stretch energy:
==========================================
	Block[ 0]            0.00000 [K]
	Block[ 1]            0.00000 [K]
	Block[ 2]            0.00000 [K]
	Block[ 3]            0.00000 [K]
	Block[ 4]            0.00000 [K]
	------------------------------------------------------------------------------
	Average              0.00000 [K] +/-            0.00000 [K]

Average Cation Bend angle energy:
=================================
	Block[ 0]            0.00000 [K]
	Block[ 1]            0.00000 [K]
	Block[ 2]            0.00000 [K]
	Block[ 3]            0.00000 [K]
	Block[ 4]            0.00000 [K]
	------------------------------------------------------------------------------
	Average              0.00000 [K] +/-            0.00000 [K]

Average Cation Bend angle inversion energy:
===========================================
	Block[ 0]            0.00000 [K]
	Block[ 1]            0.00000 [K]
	Block[ 2]            0.00000 [K]
	Block[ 3]            0.00000 [K]
	Block[ 4]            0.00000 [K]
	------------------------------------------------------------------------------
	Average              0.00000 [K] +/-            0.00000 [K]

Average Cation Torsion energy:
==============================
	Block[ 0]            0.00000 [K]
	Block[ 1]            0.00000 [K]
	Block[ 2]            0.00000 [K]
	Block[ 3]            0.00000 [K]
	Block[ 4]            0.00000 [K]
	------------------------------------------------------------------------------
	Average              0.00000 [K] +/-            0.00000 [K]

Average Cation Improper Torsion energy:
=======================================
	Block[ 0]            0.00000 [K]
	Block[ 1]            0.00000 [K]
	Block[ 2]            0.00000 [K]
	Block[ 3]            0.00000 [K]
	Block[ 4]            0.00000 [K]
	------------------------------------------------------------------------------
	Average              0.00000 [K] +/-            0.00000 [K]

Average Cation Bond-Bond cross term energy:
=================================================
	Block[ 0]            0.00000 [K]
	Block[ 1]            0.00000 [K]
	Block[ 2]            0.00000 [K]
	Block[ 3]            0.00000 [K]
	Block[ 4]            0.00000 [K]
	------------------------------------------------------------------------------
	Average              0.00000 [K] +/-            0.00000 [K]

Average Cation Bend-Bend cross term energy:
===========================================
	Block[ 0]            0.00000 [K]
	Block[ 1]            0.00000 [K]
	Block[ 2]            0.00000 [K]
	Block[ 3]            0.00000 [K]
	Block[ 4]            0.00000 [K]
	------------------------------------------------------------------------------
	Average              0.00000 [K] +/-            0.00000 [K]

Average Cation Bond-Bend cross term energy:
==============================================
	Block[ 0]            0.00000 [K]
	Block[ 1]            0.00000 [K]
	Block[ 2]            0.00000 [K]
	Block[ 3]            0.00000 [K]
	Block[ 4]            0.00000 [K]
	------------------------------------------------------------------------------
	Average              0.00000 [K] +/-            0.00000 [K]

Average Cation Bond-Torsion cross term energy:
==============================================
	Block[ 0]            0.00000 [K]
	Block[ 1]            0.00000 [K]
	Block[ 2]            0.00000 [K]
	Block[ 3]            0.00000 [K]
	Block[ 4]            0.00000 [K]
	------------------------------------------------------------------------------
	Average              0.00000 [K] +/-            0.00000 [K]

Average Cation Bend-Torsion cross term energy:
==============================================
	Block[ 0]            0.00000 [K]
	Block[ 1]            0.00000 [K]
	Block[ 2]            0.00000 [K]
	Block[ 3]            0.00000 [K]
	Block[ 4]            0.00000 [K]
	------------------------------------------------------------------------------
	Average              0.00000 [K] +/-            0.00000 [K]

Average Cation Intra Van der Waals energy:
==========================================
	Block[ 0]            0.00000 [K]
	Block[ 1]            0.00000 [K]
	Block[ 2]            0.00000 [K]
	Block[ 3]            0.00000 [K]
	Block[ 4]            0.00000 [K]
	------------------------------------------------------------------------------
	Average              0.00000 [K] +/-            0.00000 [K]

Average Cation Intra charge-charge Coulomb energy:
====================================
	Block[ 0]            0.00000 [K]
	Block[ 1]            0.00000 [K]
	Block[ 2]            0.00000 [K]
	Block[ 3]            0.00000 [K]
	Block[ 4]            0.00000 [K]
	------------------------------------------------------------------------------
	Average              0.00000 [K] +/-            0.00000 [K]

Average Cation Intra charge-bonddipole Coulomb energy:
====================================
	Block[ 0]            0.00000 [K]
	Block[ 1]            0.00000 [K]
	Block[ 2]            0.00000 [K]
	Block[ 3]            0.00000 [K]
	Block[ 4]            0.00000 [K]
	------------------------------------------------------------------------------
	Average              0.00000 [K] +/-            0.00000 [K]

Average Cation Intra bonddipole-bonddipole Coulomb energy:
====================================
	Block[ 0]            0.00000 [K]
	Block[ 1]            0.00000 [K]
	Block[ 2]            0.00000 [K]
	Block[ 3]            0.00000 [K]
	Block[ 4]            0.00000 [K]
	------------------------------------------------------------------------------
	Average              0.00000 [K] +/-            0.00000 [K]

Average Host-Host energy:
=========================
	Block[ 0] 0.00000            Van der Waals: 0.00000            Coulomb: 0.00000            [K]
	Block[ 1] 0.00000            Van der Waals: 0.00000            Coulomb: 0.00000            [K]
	Block[ 2] 0.00000            Van der Waals: 0.00000            Coulomb: 0.00000            [K]
	Block[ 3] 0.00000            Van der Waals: 0.00000            Coulomb: 0.00000            [K]
	Block[ 4] 0.00000            Van der Waals: 0.00000            Coulomb: 0.00000            [K]
	------------------------------------------------------------------------------
	Average   0.00000            Van der Waals: 0.000000           Coulomb: 0.00000            [K]
	      +/- 0.00000                       +/- 0.000000                +/- 0.00000            [K]

Average Adsorbate-Adsorbate energy:
===================================
	Block[ 0] -2507789.17765     Van der Waals: 413406.60645       Coulomb: -2921195.78411     [K]
	Block[ 1] -2504639.93437     Van der Waals: 404525.48777       Coulomb: -2909165.42214     [K]
	Block[ 2] -2513998.75245     Van der Waals: 418304.61994       Coulomb: -2932303.37238     [K]
	Block[ 3] -2497006.98098     Van der Waals: 401696.84876       Coulomb: -2898703.82974     [K]
	Block[ 4] -2518071.52453     Van der Waals: 411358.97602       Coulomb: -2929430.50056     [K]
	------------------------------------------------------------------------------
	Average   -2508301.27400     Van der Waals: 409858.507788      Coulomb: -2918159.78179     [K]
	      +/- 14673.72513                   +/- 12040.963422            +/- 25230.46004        [K]

Average Cation-Cation energy:
=============================
	Block[ 0] 0.00000            Van der Waals: 0.00000            Coulomb: 0.00000            [K]
	Block[ 1] 0.00000            Van der Waals: 0.00000            Coulomb: 0.00000            [K]
	Block[ 2] 0.00000            Van der Waals: 0.00000            Coulomb: 0.00000            [K]
	Block[ 3] 0.00000            Van der Waals: 0.00000            Coulomb: 0.00000            [K]
	Block[ 4] 0.00000            Van der Waals: 0.00000            Coulomb: 0.00000            [K]
	------------------------------------------------------------------------------
	Average   0.00000            Van der Waals: 0.000000           Coulomb: 0.00000            [K]
	      +/- 0.00000                       +/- 0.000000                +/- 0.00000            [K]

Average Host-Adsorbate energy:
==============================
	Block[ 0] 0.00000            Van der Waals: 0.00000            Coulomb: 0.00000            [K]
	Block[ 1] 0.00000            Van der Waals: 0.00000            Coulomb: 0.00000            [K]
	Block[ 2] 0.00000            Van der Waals: 0.00000            Coulomb: 0.00000            [K]
	Block[ 3] 0.00000            Van der Waals: 0.00000            Coulomb: 0.00000            [K]
	Block[ 4] 0.00000            Van der Waals: 0.00000            Coulomb: 0.00000            [K]
	------------------------------------------------------------------------------
	Average   0.00000            Van der Waals: 0.000000           Coulomb: 0.00000            [K]
	      +/- 0.00000                       +/- 0.000000                +/- 0.00000            [K]

Average Host-Cation energy:
===========================
	Block[ 0] 0.00000            Van der Waals: 0.00000            Coulomb: 0.00000            [K]
	Block[ 1] 0.00000            Van der Waals: 0.00000            Coulomb: 0.00000            [K]
	Block[ 2] 0.00000            Van der Waals: 0.00000            Coulomb: 0.00000            [K]
	Block[ 3] 0.00000            Van der Waals: 0.00000            Coulomb: 0.00000            [K]
	Block[ 4] 0.00000            Van der Waals: 0.00000            Coulomb: 0.00000            [K]
	------------------------------------------------------------------------------
	Average   0.00000            Van der Waals: 0.000000           Coulomb: 0.00000            [K]
	      +/- 0.00000                       +/- 0.000000                +/- 0.00000            [K]

Average Adsorbate-Cation energy:
================================
	Block[ 0] 0.00000            Van der Waals: 0.00000            Coulomb: 0.00000            [K]
	Block[ 1] 0.00000            Van der Waals: 0.00000            Coulomb: 0.00000            [K]
	Block[ 2] 0.00000            Van der Waals: 0.00000            Coulomb: 0.00000            [K]
	Block[ 3] 0.00000            Van der Waals: 0.00000            Coulomb: 0.00000            [K]
	Block[ 4] 0.00000            Van der Waals: 0.00000            Coulomb: 0.00000            [K]
	------------------------------------------------------------------------------
	Average   0.00000            Van der Waals: 0.000000           Coulomb: 0.00000            [K]
	      +/- 0.00000                       +/- 0.000000                +/- 0.00000            [K]

Host polarization energy:
=======================
	Block[ 0]            0.00000 [K]
	Block[ 1]            0.00000 [K]
	Block[ 2]            0.00000 [K]
	Block[ 3]            0.00000 [K]
	Block[ 4]            0.00000 [K]
	------------------------------------------------------------------------------
	Average              0.00000 [K] +/-            0.00000 [K]

Adsorbate polarization energy:
=======================
	Block[ 0]            0.00000 [K]
	Block[ 1]            0.00000 [K]
	Block[ 2]            0.00000 [K]
	Block[ 3]            0.00000 [K]
	Block[ 4]            0.00000 [K]
	------------------------------------------------------------------------------
	Average              0.00000 [K] +/-            0.00000 [K]

Cation polarization energy:
=======================
	Block[ 0]            0.00000 [K]
	Block[ 1]            0.00000 [K]
	Block[ 2]            0.00000 [K]
	Block[ 3]            0.00000 [K]
	Block[ 4]            0.00000 [K]
	------------------------------------------------------------------------------
	Average              0.00000 [K] +/-            0.00000 [K]

Host back-polarization energy:
=======================
	Block[ 0]            0.00000 [K]
	Block[ 1]            0.00000 [K]
	Block[ 2]            0.00000 [K]
	Block[ 3]            0.00000 [K]
	Block[ 4]            0.00000 [K]
	------------------------------------------------------------------------------
	Average              0.00000 [K] +/-            0.00000 [K]

Adsorbate back-polarization energy:
=======================
	Block[ 0]            0.00000 [K]
	Block[ 1]            0.00000 [K]
	Block[ 2]            0.00000 [K]
	Block[ 3]            0.00000 [K]
	Block[ 4]            0.00000 [K]
	------------------------------------------------------------------------------
	Average              0.00000 [K] +/-            0.00000 [K]

Cation back-polarization energy:
=======================
	Block[ 0]            0.00000 [K]
	Block[ 1]            0.00000 [K]
	Block[ 2]            0.00000 [K]
	Block[ 3]            0.00000 [K]
	Block[ 4]            0.00000 [K]
	------------------------------------------------------------------------------
	Average              0.00000 [K] +/-            0.00000 [K]

Tail-correction energy:
=======================
	Block[ 0]            0.00000 [K]
	Block[ 1]            0.00000 [K]
	Block[ 2]            0.00000 [K]
	Block[ 3]            0.00000 [K]
	Block[ 4]            0.00000 [K]
	------------------------------------------------------------------------------
	Average              0.00000 [K] +/-            0.00000 [K]

Distance-constraints energy:
=======================
	Block[ 0]            0.00000 [K]
	Block[ 1]            0.00000 [K]
	Block[ 2]            0.00000 [K]
	Block[ 3]            0.00000 [K]
	Block[ 4]            0.00000 [K]
	------------------------------------------------------------------------------
	Average              0.00000 [K] +/-            0.00000 [K]

Angle-constraints energy:
=======================
	Block[ 0]            0.00000 [K]
	Block[ 1]            0.00000 [K]
	Block[ 2]            0.00000 [K]
	Block[ 3]            0.00000 [K]
	Block[ 4]            0.00000 [K]
	------------------------------------------------------------------------------
	Average              0.00000 [K] +/-            0.00000 [K]

Dihedral-constraints energy:
=======================
	Block[ 0]            0.00000 [K]
	Block[ 1]            0.00000 [K]
	Block[ 2]            0.00000 [K]
	Block[ 3]            0.00000 [K]
	Block[ 4]            0.00000 [K]
	------------------------------------------------------------------------------
	Average              0.00000 [K] +/-            0.00000 [K]

Inversion-bend constraints energy:
=======================
	Block[ 0]            0.00000 [K]
	Block[ 1]            0.00000 [K]
	Block[ 2]            0.00000 [K]
	Block[ 3]            0.00000 [K]
	Block[ 4]            0.00000 [K]
	------------------------------------------------------------------------------
	Average              0.00000 [K] +/-            0.00000 [K]

Out-of-plane-distance constraints energy:
=======================
	Block[ 0]            0.00000 [K]
	Block[ 1]            0.00000 [K]
	Block[ 2]            0.00000 [K]
	Block[ 3]            0.00000 [K]
	Block[ 4]            0.00000 [K]
	------------------------------------------------------------------------------
	Average              0.00000 [K] +/-            0.00000 [K]

Exclusion-constraints energy:
=======================
	Block[ 0]            0.00000 [K]
	Block[ 1]            0.00000 [K]
	Block[ 2]            0.00000 [K]
	Block[ 3]            0.00000 [K]
	Block[ 4]            0.00000 [K]
	------------------------------------------------------------------------------
	Average              0.00000 [K] +/-            0.00000 [K]

Total energy:
=============
	Block[ 0]     -2507789.17765 [K]
	Block[ 1]     -2504639.93437 [K]
	Block[ 2]     -2513998.75245 [K]
	Block[ 3]     -2497006.98098 [K]
	Block[ 4]     -2518071.52453 [K]
	------------------------------------------------------------------------------
	Average       -2508301.27400 [K] +/-        14673.72513 [K]

Number of molecules:
====================

Component 0 [Tip5p]
-------------------------------------------------------------
	Block[ 0] 512.00000          [-]
	Block[ 1] 512.00000          [-]
	Block[ 2] 512.00000          [-]
	Block[ 3] 512.00000          [-]
	Block[ 4] 512.00000          [-]
	------------------------------------------------------------------------------
	Average                                    512.0000000000 +/-       0.0000000000 [-]
	Average loading absolute [molecules/unit cell]      512.0000000000 +/-       0.0000000000 [-]
	Average loading absolute [mol/kg framework]                   inf +/-                nan [-]
	Average loading absolute [milligram/gram framework]                   inf +/-                nan [-]
	Average loading absolute [cm^3 (STP)/gr framework]                   inf +/-                nan [-]
	Average loading absolute [cm^3 (STP)/cm^3 framework]       1244.8232998028 +/-       0.0000000000 [-]

	Block[ 0] 512.00000          [-]
	Block[ 1] 512.00000          [-]
	Block[ 2] 512.00000          [-]
	Block[ 3] 512.00000          [-]
	Block[ 4] 512.00000          [-]
	------------------------------------------------------------------------------
	Average                                    512.0000000000 +/-       0.0000000000 [-]
	Average loading excess [molecules/unit cell]      512.0000000000 +/-       0.0000000000 [-]
	Average loading excess [mol/kg framework]                   inf +/-                nan [-]
	Average loading excess [milligram/gram framework]                   inf +/-                nan [-]
	Average loading excess [cm^3 (STP)/gr framework]                   inf +/-                nan [-]
	Average loading excess [cm^3 (STP)/cm^3 framework]       1244.8232998028 +/-       0.0000000000 [-]


Average Widom Rosenbluth factor:
================================
	Block[ 0] 0 [-]
	Block[ 1] 0 [-]
	Block[ 2] 0 [-]
	Block[ 3] 0 [-]
	Block[ 4] 0 [-]
	------------------------------------------------------------------------------
	[Tip5p] Average Widom:   0 +/- 0.000000 [-]

Average Henry coefficient:
==========================
	Block[ 0] 0 [mol/kg/Pa]
	Block[ 1] 0 [mol/kg/Pa]
	Block[ 2] 0 [mol/kg/Pa]
	Block[ 3] 0 [mol/kg/Pa]
	Block[ 4] 0 [mol/kg/Pa]
	------------------------------------------------------------------------------
	[Tip5p] Average Henry coefficient:  0 +/- 0 [mol/kg/Pa]

Average adsorption energy <U_gh>_1-<U_h>_0 obtained from Widom-insertion:
(Note: the total heat of adsorption is dH=<U_gh>_1-<U_h>_0 - <U_g> - RT)
=========================================================================

Simulation finished,  0 warnings
